<preamble>

<basis_specs>
===============================================================================
Au                   Z=  79    Mass=  196.97        Charge= 0.17977+309
Lmxo=2 Lmxkb= 3    BasisType=split      Semic=T
L=0  Nsemic=1  Cnfigmx=6
          i=1  nzeta=1  polorb=0  (5s)  (semicore shell)
            splnorm:   0.15000    
               vcte:    40.000    
               rinn:    2.6355    
               qcoe:    0.0000    
               qyuk:    0.0000    
               qwid:   0.10000E-01
                rcs:    2.9254    
            lambdas:    1.0000    
          i=2  nzeta=2  polorb=0  (6s)  (to be polarized non-perturbatively)
            splnorm:   0.15000    
               vcte:    40.000    
               rinn:    7.2371    
               qcoe:    0.0000    
               qyuk:    0.0000    
               qwid:   0.10000E-01
                rcs:    8.0332      4.9274    
            lambdas:    1.0000      1.0000    
L=1  Nsemic=1  Cnfigmx=6
          i=1  nzeta=1  polorb=0  (5p)  (semicore shell)
            splnorm:   0.15000    
               vcte:    40.000    
               rinn:    3.1665    
               qcoe:    0.0000    
               qyuk:    0.0000    
               qwid:   0.10000E-01
                rcs:    3.5183    
            lambdas:    1.0000    
          i=2  nzeta=1  polorb=0  (6p)  (non-perturbative polarization shell)
            splnorm:   0.15000    
               vcte:    40.000    
               rinn:    7.2371    
               qcoe:    0.0000    
               qyuk:    0.0000    
               qwid:   0.10000E-01
                rcs:    8.0332    
            lambdas:    1.0000    
L=2  Nsemic=0  Cnfigmx=5
          i=1  nzeta=2  polorb=0  (5d)
            splnorm:   0.15000    
               vcte:    40.000    
               rinn:    5.7541    
               qcoe:    0.0000    
               qyuk:    0.0000    
               qwid:   0.10000E-01
                rcs:    6.3934      3.4623    
            lambdas:    1.0000      1.0000    
-------------------------------------------------------------------------------
L=0  Nkbl=2  erefs: 0.17977+309 0.17977+309
L=1  Nkbl=2  erefs: 0.17977+309 0.17977+309
L=2  Nkbl=1  erefs: 0.17977+309
L=3  Nkbl=1  erefs: 0.17977+309
===============================================================================
</basis_specs>

<pseudopotential_header>
 Au pb nrl pcec
 ONCVPSP-3.2017-10-31Hamann's oncvpsp                        
 5s 2.00  r= 1.46/5p 6.00  r= 1.56/5d10.00  r= 1.56/5f 0.00  r= 1.60/   5s:5p:5d:6s:
</pseudopotential_header>
</preamble>
Au                            # Symbol
Au                            # Label
   79                         # Atomic number
     19.0000000000                             # Valence charge
     196.970000000        # Mass 
     373.212323315        # Self energy 
   2   7                      # Lmax for basis, no. of nl orbitals 
   3   7                      # Lmax for projectors, no. of nl KB projectors
# PAOs:__________________________
  0  5  1  0  2.000000   #orbital l, n, z, is_polarized, population
 500    0.5862443187816637E-02     2.925359150720502     # npts, delta, cutoff
     0.000000000000000        0.9603063396117083    
    0.5862443187816637E-02    0.9604123342912367    
    0.1172488637563327E-01    0.9608212066080782    
    0.1758732956344991E-01    0.9615022788236481    
    0.2344977275126655E-01    0.9624549140644109    
    0.2931221593908319E-01    0.9636782371106410    
    0.3517465912689982E-01    0.9651711265889629    
    0.4103710231471646E-01    0.9669322148142061    
    0.4689954550253310E-01    0.9689598887947216    
    0.5276198869034974E-01    0.9712522916793094    
    0.5862443187816638E-01    0.9738073245000368    
    0.6448687506598301E-01    0.9766226481698216    
    0.7034931825379964E-01    0.9796956857196039    
    0.7621176144161629E-01    0.9830236247677457    
    0.8207420462943292E-01    0.9866034202169570    
    0.8793664781724957E-01    0.9904317971749533    
    0.9379909100506620E-01    0.9945052540953153    
    0.9966153419288283E-01    0.9988200661350546    
    0.1055239773806995         1.003372288725247    
    0.1113864205685161         1.008157761350964    
    0.1172488637563328         1.013172111536522    
    0.1231113069441494         1.018410759031899    
    0.1289737501319660         1.023868920195936    
    0.1348361933197827         1.029541612571763    
    0.1406986365075993         1.035423659649677    
    0.1465610796954159         1.041509695812503    
    0.1524235228832326         1.047794171458272    
    0.1582859660710492         1.054271358294876    
    0.1641484092588658         1.060935354801131    
    0.1700108524466825         1.067780091848570    
    0.1758732956344991         1.074799338478037    
    0.1817357388223158         1.081986707825024    
    0.1875981820101324         1.089335663187539    
    0.1934606251979490         1.096839524230100    
    0.1993230683857657         1.104491473317315    
    0.2051855115735823         1.112284561970384    
    0.2110479547613990         1.120211717439679    
    0.2169103979492156         1.128265749386462    
    0.2227728411370322         1.136439356666658    
    0.2286352843248489         1.144725134209498    
    0.2344977275126655         1.153115579983712    
    0.2403601707004821         1.161603102043894    
    0.2462226138882988         1.170180025649518    
    0.2520850570761154         1.178838600449028    
    0.2579475002639320         1.187571007721374    
    0.2638099434517487         1.196369367667221    
    0.2696723866395653         1.205225746742081    
    0.2755348298273820         1.214132165023524    
    0.2813972730151986         1.223080603604590    
    0.2872597162030152         1.232063012005501    
    0.2931221593908319         1.241071315595730    
    0.2989846025786485         1.250097423018508    
    0.3048470457664652         1.259133233609799    
    0.3107094889542818         1.268170644803818    
    0.3165719321420984         1.277201559517162    
    0.3224343753299150         1.286217893503663    
    0.3282968185177317         1.295211582672090    
    0.3341592617055483         1.304174590358892    
    0.3400217048933650         1.313098914548220    
    0.3458841480811816         1.321976595031528    
    0.3517465912689983         1.330799720499129    
    0.3576090344568149         1.339560435556188    
    0.3634714776446315         1.348250947655693    
    0.3693339208324481         1.356863533941067    
    0.3751963640202648         1.365390547991224    
    0.3810588072080814         1.373824426460941    
    0.3869212503958981         1.382157695609608    
    0.3927836935837147         1.390382977711512    
    0.3986461367715313         1.398492997341024    
    0.4045085799593480         1.406480587526130    
    0.4103710231471646         1.414338695764025    
    0.4162334663349813         1.422060389892565    
    0.4220959095227979         1.429638863811650    
    0.4279583527106146         1.437067443048729    
    0.4338207958984311         1.444339590162878    
    0.4396832390862478         1.451448909982093    
    0.4455456822740644         1.458389154668638    
    0.4514081254618811         1.465154228607562    
    0.4572705686496977         1.471738193113693    
    0.4631330118375144         1.478135270952664    
    0.4689954550253310         1.484339850671780    
    0.4748578982131476         1.490346490736788    
    0.4807203414009643         1.496149923470861    
    0.4865827845887809         1.501745058792368    
    0.4924452277765975         1.507126987748270    
    0.4983076709644142         1.512290985840276    
    0.5041701141522308         1.517232516141115    
    0.5100325573400475         1.521947232198625    
    0.5158950005278641         1.526430980725572    
    0.5217574437156808         1.530679804073462    
    0.5276198869034974         1.534689942488838    
    0.5334823300913140         1.538457836150873    
    0.5393447732791307         1.541980126989370    
    0.5452072164669473         1.545253660282508    
    0.5510696596547640         1.548275486034044    
    0.5569321028425805         1.551042860129920    
    0.5627945460303971         1.553553245274491    
    0.5686569892182138         1.555804311706948    
    0.5745194324060304         1.557793937698738    
    0.5803818755938471         1.559520209833066    
    0.5862443187816637         1.560981423067869    
    0.5921067619694804         1.562176080583950    
    0.5979692051572970         1.563102893420123    
    0.6038316483451136         1.563760779897660    
    0.6096940915329303         1.564148864836432    
    0.6155565347207469         1.564266478565491    
    0.6214189779085636         1.564113155731079    
    0.6272814210963802         1.563688633905267    
    0.6331438642841969         1.562992851998693    
    0.6390063074720135         1.562025948481107    
    0.6448687506598301         1.560788259413634    
    0.6507311938476468         1.559280316296933    
    0.6565936370354634         1.557502843739559    
    0.6624560802232801         1.555456756951152    
    0.6683185234110967         1.553143159065164    
    0.6741809665989134         1.550563338296103    
    0.6800434097867299         1.547718764936397    
    0.6859058529745465         1.544611088198192    
    0.6917682961623632         1.541242132905526    
    0.6976307393501798         1.537613896042477    
    0.7034931825379965         1.533728543163022    
    0.7093556257258131         1.529588404668512    
    0.7152180689136297         1.525195971958716    
    0.7210805121014464         1.520553893462538    
    0.7269429552892630         1.515664970554617    
    0.7328053984770797         1.510532153364086    
    0.7386678416648963         1.505158536481853    
    0.7445302848527130         1.499547354572806    
    0.7503927280405296         1.493701978231992    
    0.7562551712283462         1.487625923804056    
    0.7621176144161629         1.481322803202993    
    0.7679800576039795         1.474796366015498    
    0.7738425007917962         1.468050478590356    
    0.7797049439796128         1.461089119392580    
    0.7855673871674295         1.453916374133311    
    0.7914298303552461         1.446536430857106    
    0.7972922735430626         1.438953574993126    
    0.8031547167308793         1.431172184376723    
    0.8090171599186959         1.423196724247866    
    0.8148796031065126         1.415031742232761    
    0.8207420462943292         1.406681863314989    
    0.8266044894821458         1.398151784802366    
    0.8324669326699625         1.389446271295664    
    0.8383293758577791         1.380570149665244    
    0.8441918190455958         1.371528304041510    
    0.8500542622334124         1.362325670825010    
    0.8559167054212291         1.352967233721875    
    0.8617791486090457         1.343458018810189    
    0.8676415917968623         1.333803089642666    
    0.8735040349846790         1.324007542390937    
    0.8793664781724956         1.314076501036611    
    0.8852289213603123         1.304015112614055    
    0.8910913645481289         1.293828542509715    
    0.8969538077359456         1.283521969822629    
    0.9028162509237622         1.273100582790607    
    0.9086786941115788         1.262569574286380    
    0.9145411372993955         1.251934137387829    
    0.9204035804872120         1.241199461026249    
    0.9262660236750287         1.230370725716334    
    0.9321284668628453         1.219453099371542    
    0.9379909100506620         1.208451733208096    
    0.9438533532384786         1.197371757740851    
    0.9497157964262952         1.186218278873966    
    0.9555782396141119         1.174996374089179    
    0.9614406828019285         1.163711088734235    
    0.9673031259897452         1.152367432413847    
    0.9731655691775618         1.140970375485365    
    0.9790280123653784         1.129524845661133    
    0.9848904555531951         1.118035724719292    
    0.9907528987410117         1.106507845324634    
    0.9966153419288284         1.094945987960845    
     1.002477785116645         1.083354877975384    
     1.008340228304462         1.071739182737950    
     1.014202671492278         1.060103508913372    
     1.020065114680095         1.048452399849530    
     1.025927557867911         1.036790333080720    
     1.031790001055728         1.025121717946747    
     1.037652444243545         1.013450893327856    
     1.043514887431362         1.001782125495358    
     1.049377330619178        0.9901196060777248    
     1.055239773806995        0.9784674501416873    
     1.061102216994811        0.9668296943878166    
     1.066964660182628        0.9552102954597490    
     1.072827103370445        0.9436131283663448    
     1.078689546558261        0.9320419850156006    
     1.084551989746078        0.9205005728592033    
     1.090414432933895        0.9089925136463852    
     1.096276876121711        0.8975213422857273    
     1.102139319309528        0.8860905058133446    
     1.108001762497344        0.8747033624657572    
     1.113864205685161        0.8633631808556981    
     1.119726648872978        0.8520731392489969    
     1.125589092060794        0.8408363249405763    
     1.131451535248611        0.8296557337274892    
     1.137313978436428        0.8185342694768581    
     1.143176421624244        0.8074747437865190    
     1.149038864812061        0.7964798757360475    
     1.154901307999878        0.7855522917258457    
     1.160763751187694        0.7746945254018774    
     1.166626194375511        0.7639090176635747    
     1.172488637563327        0.7531981167524705    
     1.178351080751144        0.7425640784188750    
     1.184213523938961        0.7320090661641571    
     1.190075967126777        0.7215351515559538    
     1.195938410314594        0.7111443146136938    
     1.201800853502411        0.7008384442618395    
     1.207663296690227        0.6906193388480573    
     1.213525739878044        0.6804887067238573    
     1.219388183065861        0.6704481668848575    
     1.225250626253677        0.6604992496681388    
     1.231113069441494        0.6506433975040475    
     1.236975512629310        0.6408819657197221    
     1.242837955817127        0.6312162233919488    
     1.248700399004944        0.6216473542465132    
     1.254562842192760        0.6121764576016934    
     1.260425285380577        0.6028045493533598    
     1.266287728568394        0.5935325629990844    
     1.272150171756210        0.5843613506990657    
     1.278012614944027        0.5752916843712328    
     1.283875058131844        0.5663242568183418    
     1.289737501319660        0.5574596828848480    
     1.295599944507477        0.5486985006410824    
     1.301462387695294        0.5400411725928821    
     1.307324830883110        0.5314880869143436    
     1.313187274070927        0.5230395587017035    
     1.319049717258743        0.5146958312465534    
     1.324912160446560        0.5064570773261533    
     1.330774603634377        0.4983234005092980    
     1.336637046822193        0.4902948364759093    
     1.342499490010010        0.4823713543484783    
     1.348361933197827        0.4745528580340407    
     1.354224376385643        0.4668391875749119    
     1.360086819573460        0.4592301205067507    
     1.365949262761277        0.4517253732227351    
     1.371811705949093        0.4443246023422596    
     1.377674149136910        0.4370274060831010    
     1.383536592324726        0.4298333256359242    
     1.389399035512543        0.4227418465398404    
     1.395261478700360        0.4157524000582402    
     1.401123921888176        0.4088643645538392    
     1.406986365075993        0.4020770668584978    
     1.412848808263810        0.3953897835004007    
     1.418711251451626        0.3888017421583863    
     1.424573694639443        0.3823121234855484    
     1.430436137827259        0.3759200630722692    
     1.436298581015076        0.3696246517229902    
     1.442161024202893        0.3634249346121741    
     1.448023467390710        0.3573199118287121    
     1.453885910578526        0.3513085432525680    
     1.459748353766343        0.3453897569729253    
     1.465610796954159        0.3395624582748600    
     1.471473240141976        0.3338255390716928    
     1.477335683329793        0.3281778866032216    
     1.483198126517609        0.3226183909284767    
     1.489060569705426        0.3171459474669219    
     1.494923012893242        0.3117594562861442    
     1.500785456081059        0.3064578203780089    
     1.506647899268876        0.3012399455845692    
     1.512510342456692        0.2961047416479102    
     1.518372785644509        0.2910511230851182    
     1.524235228832326        0.2860780097152106    
     1.530097672020142        0.2811843269151007    
     1.535960115207959        0.2763690060019832    
     1.541822558395776        0.2716309845946823    
     1.547685001583592        0.2669692069556403    
     1.553547444771409        0.2623826242980119    
     1.559409887959226        0.2578701950633560    
     1.565272331147042        0.2534308852405286    
     1.571134774334859        0.2490636686155359    
     1.576997217522675        0.2447675269619127    
     1.582859660710492        0.2405414503073318    
     1.588722103898309        0.2363844370755736    
     1.594584547086125        0.2322954944437614    
     1.600446990273942        0.2282736383561681    
     1.606309433461759        0.2243178937419803    
     1.612171876649575        0.2204272946216365    
     1.618034319837392        0.2166008842759166    
     1.623896763025209        0.2128377153721174    
     1.629759206213025        0.2091368500517908    
     1.635621649400842        0.2054973600233124    
     1.641484092588658        0.2019183266623944    
     1.647346535776475        0.1983988410786954    
     1.653208978964292        0.1949380041929429    
     1.659071422152108        0.1915349267777973    
     1.664933865339925        0.1881887295104529    
     1.670796308527742        0.1848985430064783    
     1.676658751715558        0.1816635078525682    
     1.682521194903375        0.1784827746275949    
     1.688383638091192        0.1753555039163976    
     1.694246081279008        0.1722808663168945    
     1.700108524466825        0.1692580424402958    
     1.705970967654642        0.1662862229052954    
     1.711833410842458        0.1633646083259395    
     1.717695854030275        0.1604924092941022    
     1.723558297218091        0.1576688463563831    
     1.729420740405908        0.1548931499858778    
     1.735283183593725        0.1521645605491705    
     1.741145626781541        0.1494823282688401    
     1.747008069969358        0.1468457131816222    
     1.752870513157175        0.1442539850924376    
     1.758732956344991        0.1417064235247902    
     1.764595399532808        0.1392023176674920    
     1.770457842720625        0.1367409663180228    
     1.776320285908441        0.1343216778227380    
     1.782182729096258        0.1319437700141999    
     1.788045172284074        0.1296065701457028    
     1.793907615471891        0.1273094148231985    
     1.799770058659708        0.1250516499348871    
     1.805632501847524        0.1228326305785553    
     1.811494945035341        0.1206517209868541    
     1.817357388223158        0.1185082944506269    
     1.823219831410974        0.1164017332405540    
     1.829082274598791        0.1143314285271248    
     1.834944717786608        0.1122967802991379    
     1.840807160974424        0.1102971972808427    
     1.846669604162241        0.1083320968478363    
     1.852532047350057        0.1064009049418489    
     1.858394490537874        0.1045030559845340    
     1.864256933725691        0.1026379927903440    
     1.870119376913507        0.1008051664786145    
     1.875981820101324        0.9900403638494219E-01
     1.881844263289141        0.9723406997199839E-01
     1.887706706476957        0.9549474273975440E-01
     1.893569149664774        0.9378553813530809E-01
     1.899431592852590        0.9210594746234552E-01
     1.905294036040407        0.9045546979037195E-01
     1.911156479228224        0.8883361186364004E-01
     1.917018922416040        0.8723988800999528E-01
     1.922881365603857        0.8567382004963843E-01
     1.928743808791674        0.8413493720392019E-01
     1.934606251979490        0.8262277600407550E-01
     1.940468695167307        0.8113688020012613E-01
     1.946331138355124        0.7967680066993491E-01
     1.952193581542940        0.7824209532849197E-01
     1.958056024730757        0.7683232903734873E-01
     1.963918467918573        0.7544707351441458E-01
     1.969780911106390        0.7408590724409139E-01
     1.975643354294207        0.7274841538780610E-01
     1.981505797482023        0.7143418969485255E-01
     1.987368240669840        0.7014282841375209E-01
     1.993230683857657        0.6887393620409216E-01
     1.999093127045473        0.6762712404890675E-01
     2.004955570233290        0.6640200916747885E-01
     2.010818013421106        0.6519821492879410E-01
     2.016680456608923        0.6401537076556321E-01
     2.022542899796740        0.6285311208892461E-01
     2.028405342984557        0.6171108020363334E-01
     2.034267786172373        0.6058892222400798E-01
     2.040130229360190        0.5948629099051777E-01
     2.045992672548007        0.5840284498714939E-01
     2.051855115735823        0.5733824825931400E-01
     2.057717558923640        0.5629217033258730E-01
     2.063580002111456        0.5526428613213901E-01
     2.069442445299273        0.5425427590301129E-01
     2.075304888487090        0.5326182513099405E-01
     2.081167331674906        0.5228662446436382E-01
     2.087029774862723        0.5132836963636300E-01
     2.092892218050539        0.5038676138854966E-01
     2.098754661238356        0.4946150539482187E-01
     2.104617104426173        0.4855231218628996E-01
     2.110479547613989        0.4765889707694583E-01
     2.116341990801806        0.4678098009017710E-01
     2.122204433989623        0.4591828588606223E-01
     2.128066877177440        0.4507054368945212E-01
     2.133929320365256        0.4423748721890593E-01
     2.139791763553073        0.4341885461643382E-01
     2.145654206740889        0.4261438837810370E-01
     2.151516649928706        0.4182383528537955E-01
     2.157379093116523        0.4104694633734261E-01
     2.163241536304339        0.4028347668370539E-01
     2.169103979492156        0.3953318555869698E-01
     2.174966422679972        0.3879583621569081E-01
     2.180828865867789        0.3807119586268660E-01
     2.186691309055606        0.3735903559859818E-01
     2.192553752243422        0.3665913035035928E-01
     2.198416195431239        0.3597125881083727E-01
     2.204278638619056        0.3529520337752469E-01
     2.210141081806873        0.3463075009205194E-01
     2.216003524994689        0.3397768858048508E-01
     2.221865968182505        0.3333581199443256E-01
     2.227728411370322        0.3270491695290766E-01
     2.233590854558139        0.3208480348498916E-01
     2.239453297745956        0.3147527497325319E-01
     2.245315740933772        0.3087613809797395E-01
     2.251178184121589        0.3028720278208950E-01
     2.257040627309405        0.2970828213692110E-01
     2.262903070497222        0.2913919240864676E-01
     2.268765513685039        0.2857975292552056E-01
     2.274627956872855        0.2802978604582172E-01
     2.280490400060672        0.2748911710654776E-01
     2.286352843248489        0.2695757437282627E-01
     2.292215286436305        0.2643498898804563E-01
     2.298077729624122        0.2592119492469662E-01
     2.303940172811938        0.2541602893590693E-01
     2.309802615999755        0.2491933050769557E-01
     2.315665059187572        0.2443094181189949E-01
     2.321527502375389        0.2395070765978998E-01
     2.327389945563205        0.2347847545635042E-01
     2.333252388751021        0.2301409515523096E-01
     2.339114831938838        0.2255741921436950E-01
     2.344977275126655        0.2210830255225353E-01
     2.350839718314472        0.2166660250483611E-01
     2.356702161502288        0.2123217878306057E-01
     2.362564604690105        0.2080489343105068E-01
     2.368427047877922        0.2038461078490566E-01
     2.374289491065738        0.1997119743210676E-01
     2.380151934253555        0.1956452217153854E-01
     2.386014377441371        0.1916445597407696E-01
     2.391876820629188        0.1877087194381409E-01
     2.397739263817005        0.1838364527983711E-01
     2.403601707004821        0.1800265323858711E-01
     2.409464150192638        0.1762777509679031E-01
     2.415326593380454        0.1725889211492239E-01
     2.421189036568271        0.1689588750126714E-01
     2.427051479756088        0.1653864637649137E-01
     2.432913922943905        0.1618705573876197E-01
     2.438776366131721        0.1584100442939518E-01
     2.444638809319538        0.1550038309900852E-01
     2.450501252507355        0.1516508417421917E-01
     2.456363695695171        0.1483500182482576E-01
     2.462226138882988        0.1451003193149548E-01
     2.468088582070804        0.1419007205394308E-01
     2.473951025258621        0.1387502139958289E-01
     2.479813468446438        0.1356478079267986E-01
     2.485675911634254        0.1325925264395373E-01
     2.491538354822071        0.1295834092065108E-01
     2.497400798009887        0.1266195111707259E-01
     2.503263241197704        0.1236999022554199E-01
     2.509125684385521        0.1208236670782904E-01
     2.514988127573337        0.1179899046699776E-01
     2.520850570761154        0.1151977281968465E-01
     2.526713013948971        0.1124462646879761E-01
     2.532575457136788        0.1097346547662636E-01
     2.538437900324604        0.1070620523836444E-01
     2.544300343512421        0.1044276245602785E-01
     2.550162786700237        0.1018305511276963E-01
     2.556025229888054        0.9927002447579871E-02
     2.561887673075871        0.9674524930370279E-02
     2.567750116263687        0.9425544237428380E-02
     2.573612559451504        0.9179983227242285E-02
     2.579475002639320        0.8937765916687743E-02
     2.585337445827137        0.8698817457567506E-02
     2.591199889014954        0.8463064113508112E-02
     2.597062332202770        0.8230433237190899E-02
     2.602924775390587        0.8000853247923739E-02
     2.608787218578404        0.7774253609544580E-02
     2.614649661766220        0.7550564808649084E-02
     2.620512104954037        0.7329718333141277E-02
     2.626374548141853        0.7111646651097163E-02
     2.632236991329670        0.6896283189930429E-02
     2.638099434517487        0.6683562315866557E-02
     2.643961877705304        0.6473419313712236E-02
     2.649824320893120        0.6265790366913680E-02
     2.655686764080937        0.6060612538579258E-02
     2.661549207268753        0.5857823790208389E-02
     2.667411650456570        0.5657363427013914E-02
     2.673274093644387        0.5459174124027161E-02
     2.679136536832203        0.5263206388085933E-02
     2.684998980020020        0.5069424606902429E-02
     2.690861423207837        0.4877812832734389E-02
     2.696723866395653        0.4688378851194121E-02
     2.702586309583470        0.4501155993660838E-02
     2.708448752771286        0.4316202846116701E-02
     2.714311195959103        0.4133601336017426E-02
     2.720173639146920        0.3953453745063741E-02
     2.726036082334736        0.3775879129734299E-02
     2.731898525522553        0.3601009520940089E-02
     2.737760968710370        0.3428986163975723E-02
     2.743623411898186        0.3259955968051746E-02
     2.749485855086003        0.3094068264898097E-02
     2.755348298273820        0.2931471926107499E-02
     2.761210741461636        0.2772312855084882E-02
     2.767073184649453        0.2616731847587150E-02
     2.772935627837270        0.2464862801483121E-02
     2.778798071025086        0.2316831248888751E-02
     2.784660514212903        0.2172753180292690E-02
     2.790522957400719        0.2032734129262551E-02
     2.796385400588536        0.1896868486902152E-02
     2.802247843776353        0.1765239016682358E-02
     2.808110286964169        0.1637916542196450E-02
     2.813972730151986        0.1514959782465051E-02
     2.819835173339802        0.1396415311434545E-02
     2.825697616527619        0.1282317620115538E-02
     2.831560059715436        0.1172689261276528E-02
     2.837422502903252        0.1067541057579342E-02
     2.843284946091069        0.9668723543563717E-03
     2.849147389278886        0.8706712975846933E-03
     2.855009832466703        0.7789151155444815E-03
     2.860872275654519        0.6915703783315437E-03
     2.866734718842336        0.6085932013261253E-03
     2.872597162030152        0.5299293440516706E-03
     2.878459605217969        0.4555141289317711E-03
     2.884322048405786        0.3852720533580817E-03
     2.890184491593602        0.3191158663883743E-03
     2.896046934781419        0.2569446625412842E-03
     2.901909377969235        0.1986400302124792E-03
     2.907771821157052        0.1440579184303159E-03
     2.913634264344869        0.9300950426280773E-04
     2.919496707532685        0.4520582525136090E-04
     2.925359150720502         0.000000000000000    
  0  6  1  0  1.000000   #orbital l, n, z, is_polarized, population
 500    0.1609864232753471E-01     8.033222521439821     # npts, delta, cutoff
     0.000000000000000        0.5914425228687333    
    0.1609864232753471E-01    0.5918668603007143    