Executable      : siesta
Version         : 5.2.2
Architecture    : x86_64
Compiler version: GNU-13.3.0
Compiler flags  : -march=nocona -mtune=haswell -ftree-vectorize -fPIC -fstack-protector-strong -fno-plt -O2 -ffunction-sections -pipe -isystem <prefix>/include -I<prefix>/_build_env/include -fdebug-prefix-map=<prefix>/work=/usr/local/src/conda/siesta-5.2.2 -fdebug-prefix-map=<prefix>=/usr/local/src/conda-prefix -I<prefix>/lib -fallow-argument-mismatch -O3
Parallelisations: none
NetCDF support
NetCDF-4 support
Lua support
DFT-D3 support

Runtime information:
* Directory : /home/jordifaraudo/Documents/kk/prova_or_v2
* Running in serial mode.
>> Start of run:  30-JUN-2025  18:13:48

                           *********************** 
                           *  WELCOME TO SIESTA  * 
                           *********************** 

 NOTE: Siesta V5 introduces some new defaults for basis-set generation
 NOTE: which might lead to slightly different numerical results.
 NOTE: Please see the manual for full details and compatibility measures.


reinit: Reading from file optimization.fdf

reinit: -----------------------------------------------------------------------
reinit: System Name: 
reinit: -----------------------------------------------------------------------
reinit: System Label: SurRel
reinit: -----------------------------------------------------------------------

initatom: Reading input for the pseudopotentials and atomic orbitals ----------
Species number:   1 Atomic number:   79 Label: Au

Ground state valence configuration (from tables):   6s01  6p00  5d10  5f00

---- Processing specs for species: Au
Reading pseudopotential information in PSML from:
  Au.psml
PSML file version: 1.1
Using libxc ids:  101 130
GGA--PBE XC_GGA_X_PBE--XC_GGA_C_PBE pb
PSML uuid: fa497b30-be45-11e7-41fb-494093d7a025
Semicore shell(s) with  8 electrons included in the valence for Au

---- Pseudopotential check for Au

Pseudized shells:
5s( 2.00) rc: 1.46
5p( 6.00) rc: 1.56
5d(10.00) rc: 1.56
5f( 0.00) rc: 1.60
Valence configuration for ps generation: 5s:5p:5d:6s: Total charge:  19.000000
Semicore shell(s): 5s 5p
Fallback to non-perturbative polarization scheme for Au
Please see the manual if this is not desired in principle
For Au, standard SIESTA heuristics set lmxkb to 3
 (one more than the basis l, including polarization orbitals).
Use PS.lmax or PS.KBprojectors blocks to override.

<basis_specs>
===============================================================================
Au                   Z=  79    Mass=  196.97        Charge= 0.17977+309
Lmxo=2 Lmxkb= 3    BasisType=split      Semic=T
L=0  Nsemic=1  Cnfigmx=6
          i=1  nzeta=1  polorb=0  (5s)  (semicore shell)
            splnorm:   0.15000    
               vcte:    40.000    
               rinn:  -0.90000    
               qcoe:    0.0000    
               qyuk:    0.0000    
               qwid:   0.10000E-01
                rcs:    0.0000    
            lambdas:    1.0000    
          i=2  nzeta=2  polorb=0  (6s)  (to be polarized non-perturbatively)
            splnorm:   0.15000    
               vcte:    40.000    
               rinn:  -0.90000    
               qcoe:    0.0000    
               qyuk:    0.0000    
               qwid:   0.10000E-01
                rcs:    0.0000      0.0000    
            lambdas:    1.0000      1.0000    
L=1  Nsemic=1  Cnfigmx=6
          i=1  nzeta=1  polorb=0  (5p)  (semicore shell)
            splnorm:   0.15000    
               vcte:    40.000    
               rinn:  -0.90000    
               qcoe:    0.0000    
               qyuk:    0.0000    
               qwid:   0.10000E-01
                rcs:    0.0000    
            lambdas:    1.0000    
          i=2  nzeta=1  polorb=0  (6p)  (non-perturbative polarization shell)
            splnorm:   0.15000    
               vcte:    40.000    
               rinn:  -0.90000    
               qcoe:    0.0000    
               qyuk:    0.0000    
               qwid:   0.10000E-01
                rcs:    0.0000    
            lambdas:    1.0000    
L=2  Nsemic=0  Cnfigmx=5
          i=1  nzeta=2  polorb=0  (5d)
            splnorm:   0.15000    
               vcte:    40.000    
               rinn:  -0.90000    
               qcoe:    0.0000    
               qyuk:    0.0000    
               qwid:   0.10000E-01
                rcs:    0.0000      0.0000    
            lambdas:    1.0000      1.0000    
-------------------------------------------------------------------------------
L=0  Nkbl=2  erefs: 0.17977+309 0.17977+309
L=1  Nkbl=2  erefs: 0.17977+309 0.17977+309
L=2  Nkbl=1  erefs: 0.17977+309
L=3  Nkbl=1  erefs: 0.17977+309
===============================================================================
</basis_specs>

Using PAO.SplitTailNorm
atom: Called for Au                    (Z =  79)
Maximum radius (at nrval) set to   50.00000 8518

read_vps: Pseudopotential generation method:
read_vps: ONCVPSP-3.Hamann's oncvpsp                        
Valence charge in pseudo generation:   19.00000

read_vps: Pseudopotential includes a core correction:
read_vps: Pseudo-core for xc-correction

xc_check: Exchange-correlation functional:
xc_check: GGA Perdew, Burke & Ernzerhof 1996
Got Vlocal (oncv-fit) from psml data
Choosing vlocal chloc cutoff:  5.037181
qtot up to nchloc:   18.99999407
atom: Maximum radius for chlocal:    5.03718
atom: Maximum radius for r*vlocal+2*Zval:    5.03718
Reading KB projs from Au psml data
Using scalar-relativistic projectors in PSML file

PSML: Kleinman-Bylander projectors: 
   l= 0   rc=  1.474132   Ekb= 18.815768
   l= 0   rc=  1.474132   Ekb= -0.390506
   l= 1   rc=  1.583336   Ekb=  4.781134
   l= 1   rc=  1.583336   Ekb= -3.699696
   l= 2   rc=  1.583336   Ekb=  2.968821
   l= 2   rc=  1.583336   Ekb=  0.574456
   l= 3   rc=  1.622038   Ekb=  2.312314

PSML: Total number of  Kleinman-Bylander projectors:  25
atom: -------------------------------------------------------------------------

atom: SANKEY-TYPE ORBITALS:
atom: Selected multiple-zeta basis: split     

SPLIT: Orbitals with angular momentum L= 0

SPLIT: Basis orbitals for state 5s

SPLIT: PAO cut-off radius determined from an
SPLIT: energy shift=  0.000735 Ry
Split based on tail norm

   izeta = 1
                 lambda =    1.000000
                     rc =    2.925359
                 energy =   -7.964134
                kinetic =    2.893592
    potential(screened) =  -10.857725
       potential(ionic) =  -37.457701

SPLIT: Basis orbitals for state 6s

SPLIT: PAO cut-off radius determined from an
SPLIT: energy shift=  0.000735 Ry
Split based on tail norm

   izeta = 1
                 lambda =    1.000000
                     rc =    8.033223
                 energy =   -0.536485
                kinetic =    1.477051
    potential(screened) =   -2.013535
       potential(ionic) =  -17.521292

   izeta = 2
                 rmatch =    4.927355
              splitnorm =    0.150000
                 energy =   -0.413505
                kinetic =    2.478661
    potential(screened) =   -2.892166
       potential(ionic) =  -20.911581

SPLIT: Orbitals with angular momentum L= 1

SPLIT: Basis orbitals for state 5p

SPLIT: PAO cut-off radius determined from an
SPLIT: energy shift=  0.000735 Ry
Split based on tail norm

   izeta = 1
                 lambda =    1.000000
                     rc =    3.518348
                 energy =   -4.393065
                kinetic =    4.954761
    potential(screened) =   -9.347826
       potential(ionic) =  -34.716971

SPLIT: Basis orbitals for state 6p
SPLIT: Non-perturbative polarization orbs for state 6s
SPLIT: rc(1st zeta) (re)set to: 8.0332 (expansion factor: 1.0000)
Split based on tail norm

   izeta = 1
                 lambda =    1.000000
                     rc =    8.033223
                 energy =   -0.028561
                kinetic =    0.837945
    potential(screened) =   -0.866506
       potential(ionic) =  -11.902774

SPLIT: Orbitals with angular momentum L= 2

SPLIT: Basis orbitals for state 5d

SPLIT: PAO cut-off radius determined from an
SPLIT: energy shift=  0.000735 Ry
Split based on tail norm

   izeta = 1
                 lambda =    1.000000
                     rc =    6.393405
                 energy =   -0.504592
                kinetic =    4.935315
    potential(screened) =   -5.439906
       potential(ionic) =  -26.571989

   izeta = 2
                 rmatch =    3.462344
              splitnorm =    0.150000
                 energy =   -0.397189
                kinetic =    6.101362
    potential(screened) =   -6.498551
       potential(ionic) =  -29.253309
atom: Total number of Sankey-type orbitals: 19

atm_pop: Valence configuration (for local Pseudopot. screening):
 5s( 2.00) 6s( 1.00)                                                  
 5p( 6.00) 6p( 0.00)                                                  
 5d(10.00)                                                            
Vna: chval, zval:   19.00000  19.00000

Vna:  Cut-off radius for the neutral-atom potential:   8.033223
comcore: Pseudo-core radius Rcore=  2.583037

atom: _________________________________________________________________________

prinput: Basis input 

PAO.BasisType split     

%block ChemicalSpeciesLabel
    1   79 Au                      # Species index, atomic number, species label
%endblock ChemicalSpeciesLabel

%block PAO.Basis                 # Define Basis set
# WARNING: This information might be incomplete!
Au                    5                    # Species label, number of l-shells
 n=5   0   1                         # n, l, Nzeta 
   2.925   
   1.000   
 n=6   0   2                         # n, l, Nzeta 
   8.033      4.927   
   1.000      1.000   
 n=5   1   1                         # n, l, Nzeta 
   3.518   
   1.000   
 n=6   1   1                         # n, l, Nzeta 
   8.033   
   1.000   
 n=5   2   2                         # n, l, Nzeta 
   6.393      3.462   
   1.000      1.000   
%endblock PAO.Basis

prinput: ----------------------------------------------------------------------

Dumping basis to NetCDF file Au.ion.nc
coor:   Atomic-coordinates input format  =     Cartesian coordinates
coor:                                          (in Angstroms)

siesta: Atomic coordinates (Bohr) and species
siesta:      7.91147   7.21633   7.69874  1        1
siesta:     10.94329  11.12368   7.90883  1        2
siesta:     10.97755   7.66288  11.60182  1        3
siesta:      6.70530  10.58660  11.06782  1        4
siesta:      8.18915  15.14837   9.32920  1        5
siesta:     12.04421  18.88662   9.85413  1        6
siesta:     12.76948  14.17053  11.24737  1        7
siesta:      8.50781  18.51412  13.14048  1        8
siesta:      8.24901   8.84515  15.69941  1        9
siesta:     12.82642  10.88053  14.83569  1       10
siesta:     12.07512   9.42576  19.54451  1       11
siesta:      8.45649  12.60538  19.12427  1       12
siesta:      7.04569  13.98522  14.54800  1       13
siesta:     13.24730  17.67285  14.83006  1       14
siesta:     13.28451  14.29349  18.46493  1       15
siesta:      9.07282  17.34321  17.93630  1       16

siesta: System type = molecule  

initatomlists: Number of atoms, orbitals, and projectors:     16   304   400

coxmol: Writing XMOL coordinates into file SurRel.xyz                                                                                                                                                                                                                          

siesta: ******************** Simulation parameters ****************************
siesta:
siesta: The following are some of the parameters of the simulation.
siesta: A complete list of the parameters used, including default values,
siesta: can be found in file out.fdf
siesta:
redata: Spin configuration                          = none
redata: Number of spin components                   = 1
redata: Time-Reversal Symmetry                      = T
redata: Spin spiral                                 = F
redata: Long output                                 =   F
redata: Number of Atomic Species                    =        1
redata: Charge density info will appear in .RHO file
redata: Write Mulliken charges (when)               = none
redata: Write Mulliken Pop.                         = NO
redata: Write Hirshfeld charges (when)              = none
redata: Write Voronoi charges (when)                = none
redata: Write spin charge (when)                    = none
redata: Matel table size (NRTAB)                    =     1024
redata: Mesh Cutoff                                 =   300.0000 Ry
redata: Net charge of the system                    =     0.0000 |e|
redata: Min. number of SCF Iter                     =        0
redata: Max. number of SCF Iter                     =     1000
redata: SCF convergence failure will abort job
redata: SCF mix quantity                            = Hamiltonian
redata: Mix DM or H after convergence               =   F
redata: Recompute H after scf cycle                 =   F
redata: Mix DM in first SCF step                    =   T
redata: Write Pulay info on disk                    =   F
redata: New DM Occupancy tolerance                  = 0.000000000001
redata: No kicks to SCF
redata: DM Mixing Weight for Kicks                  =     0.5000
redata: Require Harris convergence for SCF          =   F
redata: Harris energy tolerance for SCF             =     0.000100 eV
redata: Require DM convergence for SCF              =   T
redata: DM tolerance for SCF                        =     0.000100
redata: Require EDM convergence for SCF             =   F
redata: EDM tolerance for SCF                       =     0.001000 eV
redata: Require H convergence for SCF               =   T
redata: Hamiltonian tolerance for SCF               =     0.001000 eV
redata: Require (free) Energy convergence for SCF   =   F
redata: (free) Energy tolerance for SCF             =     0.000100 eV
redata: Using DFT-D3 dispersion                     =   F
redata: Using Saved Data (generic)                  =   F
redata: Use continuation files for DM               =   T
redata: Neglect nonoverlap interactions             =   F
redata: Method of Calculation                       = Diagonalization
redata: Electronic Temperature                      =   290.1130 K
redata: Fix the spin of the system                  =   F
redata: Max. number of TDED Iter                    =        1
redata: Number of TDED substeps                     =        3
redata: Dynamics option                             = CG coord. optimization
redata: Variable cell                               =   F
redata: Use continuation files for CG               =   F
redata: Max atomic displ per move                   =     0.1058 Ang
redata: Maximum number of optimization moves        =       15
redata: Force tolerance                             =     0.0200 eV/Ang
mix.SCF: Pulay mixing                            = Pulay
mix.SCF:    Variant                              = stable
mix.SCF:    History steps                        = 2
mix.SCF:    Linear mixing weight                 =     0.250000
mix.SCF:    Mixing weight                        =     0.250000
mix.SCF:    SVD condition                        = 0.1000E-07
redata: Save all siesta data in one NC              =   F
redata: ***********************************************************************

%block SCF.Mixers
  Pulay
%endblock SCF.Mixers

%block SCF.Mixer.Pulay
  # Mixing method
  method pulay
  variant stable

  # Mixing options
  weight 0.2500
  weight.linear 0.2500
  history 2
%endblock SCF.Mixer.Pulay

DM_history_depth set to one: no extrapolation allowed by default for geometry relaxation
Size of DM history Fstack: 1
Total number of electrons:   304.000000
Total ionic charge:   304.000000

siesta: k-grid: Number of k-points = 1
siesta: k-point is Gamma-only

diag: Algorithm                                     = D&C
diag: Used triangular part                          = Lower
diag: Absolute tolerance                            =  0.100E-15
diag: Orthogonalization factor                      =  0.100E-05
diag: Memory factor                                 =  1.0000


ts: **************************************************************
ts: Save H and S matrices                           =    F
ts: Save DM and EDM matrices                        =    F
ts: Only save the overlap matrix S                  =    F
ts: **************************************************************

************************ Begin: TS CHECKS AND WARNINGS ************************
************************ End: TS CHECKS AND WARNINGS **************************


                     ====================================
                        Begin CG opt. move =      0
                     ====================================

outcell: Unit cell vectors (Ang):
       40.000000    0.000000    0.000000
        0.000000   40.000000    0.000000
        0.000000    0.000000   40.000000

outcell: Cell vector modules (Ang)   :   40.000000   40.000000   40.000000
outcell: Cell angles (23,13,12) (deg):     90.0000     90.0000     90.0000
outcell: Cell volume (Ang**3)        :  64000.0000
<dSpData1D:S at geom step 0
  <sparsity:sparsity for geom step 0
    nrows_g=304 nrows=304 sparsity=.8401 nnzs=77640, refcount: 7>
  <dData1D:(new from dSpData1D) n=77640, refcount: 1>
refcount: 1>
new_DM -- step:     1
Initializing Density Matrix...

Attempting to read DM from file... Failed...
DM filled with atomic data:
<dSpData2D:DM initialized from atoms
  <sparsity:sparsity for geom step 0
    nrows_g=304 nrows=304 sparsity=.8401 nnzs=77640, refcount: 8>
  <dData2D:DM n=77640 m=1, refcount: 1>
refcount: 1>
No. of atoms with KB's overlaping orbs in proc 0. Max # of overlaps:      16     175

InitMesh: MESH = 432 x 432 x 432 = 80621568
InitMesh: Mesh cutoff (required, used) =   300.000   322.366 Ry
New grid distribution [1]: sub = 2

stepf: Fermi-Dirac step function

siesta: Program's energy decomposition (eV):
siesta: Ebs     =    -12985.740522
siesta: Eions   =     81244.997452
siesta: Ena     =      8165.035134
siesta: Ekin    =     17895.733636
siesta: Enl     =      1083.897932
siesta: Eso     =         0.000000
siesta: Edftu   =         0.000000
siesta: DEna    =       774.352692
siesta: DUscf   =        46.232959
siesta: DUext   =         0.000000
siesta: Ex      =    -10546.029135
siesta: Ec      =      -646.370183
siesta: Exc     =    -11192.399318
siesta: EbV     =         0.000000
siesta: eta*DQ  =         0.000000
siesta: Emadel  =         0.000000
siesta: Emeta   =         0.000000
siesta: Emolmec =         0.000000
siesta: Ekinion =         0.000000
siesta: Eharris =    -64367.548366
siesta: Etot    =    -64472.144418
siesta: FreeEng =    -64472.168127

        iscf     Eharris(eV)        E_KS(eV)     FreeEng(eV)     dDmax    Ef(eV) dHmax(eV)
   scf:    1   -64367.548366   -64472.144418   -64472.168127  0.663655 -3.213548 15.330487
timer: Routine,Calls,Time,% = IterSCF        1      36.961  44.45
   scf:    2   -64502.935298   -64496.270533   -64496.292444  0.485352 -4.839861  3.806693
   scf:    3   -64498.631562   -64498.263644   -64498.308434  0.151365 -4.902473  2.035425
   scf:    4   -64498.709424   -64498.544963   -64498.588374  0.048242 -4.998667  0.680022
   scf:    5   -64498.669844   -64498.621330   -64498.668344  0.036378 -5.071039  0.415812
   scf:    6   -64498.629809   -64498.634047   -64498.682293  0.021648 -5.111353  0.291860
   scf:    7   -64498.637134   -64498.639568   -64498.686408  0.011890 -5.121625  0.146475
   scf:    8   -64498.638288   -64498.639806   -64498.688348  0.009561 -5.134888  0.090396
   scf:    9   -64498.641894   -64498.641090   -64498.688734  0.003837 -5.145712  0.065500
   scf:   10   -64498.638626   -64498.640107   -64498.688842  0.005130 -5.153781  0.065803
   scf:   11   -64498.641608   -64498.640996   -64498.689013  0.003057 -5.157878  0.033426
   scf:   12   -64498.640268   -64498.640666   -64498.689062  0.001862 -5.162589  0.027519
   scf:   13   -64498.641236   -64498.640978   -64498.689072  0.001301 -5.166502  0.021290
   scf:   14   -64498.640264   -64498.640651   -64498.689085  0.001582 -5.168835  0.021165
   scf:   15   -64498.641061   -64498.640867   -64498.689101  0.000898 -5.170530  0.010429
   scf:   16   -64498.640618   -64498.640746   -64498.689103  0.000569 -5.172346  0.010575
   scf:   17   -64498.641008   -64498.640882   -64498.689104  0.000614 -5.173637  0.007999
   scf:   18   -64498.640643   -64498.640766   -64498.689106  0.000540 -5.174398  0.006790
   scf:   19   -64498.640887   -64498.640827   -64498.689108  0.000275 -5.175086  0.003598
   scf:   20   -64498.640731   -64498.640780   -64498.689108  0.000213 -5.175796  0.004193
   scf:   21   -64498.640889   -64498.640835   -64498.689108  0.000256 -5.176175  0.002895
   scf:   22   -64498.640757   -64498.640797   -64498.689109  0.000174 -5.176468  0.002159
   scf:   23   -64498.640835   -64498.640816   -64498.689109  0.000091 -5.176735  0.001336
   scf:   24   -64498.640776   -64498.640796   -64498.689109  0.000088 -5.176994  0.001627
   scf:   25   -64498.640837   -64498.640817   -64498.689109  0.000096 -5.177105  0.000988

SCF Convergence by DM+H criterion
max |DM_out - DM_in|         :     0.0000956684
max |H_out - H_in|      (eV) :     0.0009878847
SCF cycle converged after 25 iterations

Using DM_out to compute the final energy and forces
No. of atoms with KB's overlaping orbs in proc 0. Max # of overlaps:      16     175

siesta: E_KS(eV) =           -64498.6408

siesta: E_KS - E_eggbox =    -64498.6408

siesta: Atomic forces (eV/Ang):
----------------------------------------
   Tot    0.000511    0.001261   -0.000258
----------------------------------------
   Max    1.730674
   Res    1.067276    sqrt( Sum f_i^2 / 3N )
----------------------------------------
   Max    1.730674    constrained

Stress tensor Voigt[x,y,z,yz,xz,xy] (kbar):       -0.54       -0.73       -0.74       -0.01       -0.02       -0.03
(Free)E + p*V (eV/cell)   -64471.8330
Target enthalpy (eV/cell)   -64498.6891

                     ====================================
                        Begin CG opt. move =      1
                     ====================================

outcell: Unit cell vectors (Ang):
       40.000000    0.000000    0.000000
        0.000000   40.000000    0.000000
        0.000000    0.000000   40.000000

outcell: Cell vector modules (Ang)   :   40.000000   40.000000   40.000000
outcell: Cell angles (23,13,12) (deg):     90.0000     90.0000     90.0000
outcell: Cell volume (Ang**3)        :  64000.0000
<dSpData1D:S at geom step 1
  <sparsity:sparsity for geom step 1
    nrows_g=304 nrows=304 sparsity=.8237 nnzs=76126, refcount: 7>
  <dData1D:(new from dSpData1D) n=76126, refcount: 1>
refcount: 1>
new_DM -- step:     2
Re-using DM from previous geometries...
Number of DMs in history: 1
 DM extrapolation coefficients: 
1   1.00000
New DM after history re-use:
<dSpData2D:SpM extrapolated using coords
  <sparsity:sparsity for geom step 1
    nrows_g=304 nrows=304 sparsity=.8237 nnzs=76126, refcount: 9>
  <dData2D:(temp array for extrapolation) n=76126 m=1, refcount: 1>
refcount: 1>
No. of atoms with KB's overlaping orbs in proc 0. Max # of overlaps:      16     170

InitMesh: MESH = 432 x 432 x 432 = 80621568
InitMesh: Mesh cutoff (required, used) =   300.000   322.366 Ry
New grid distribution [1]: sub = 2

        iscf     Eharris(eV)        E_KS(eV)     FreeEng(eV)     dDmax    Ef(eV) dHmax(eV)
   scf:    1   -64501.164105   -64499.268150   -64499.313756  0.131230 -5.147751  0.724675
   scf:    2   -64497.383364   -64498.702857   -64498.759097  0.133224 -5.380642  2.816892
   scf:    3   -64499.405286   -64499.309943   -64499.355056  0.107246 -5.202738  0.172068
   scf:    4   -64499.289766   -64499.305161   -64499.354949  0.021577 -5.202418  0.187070
   scf:    5   -64499.313114   -64499.310544   -64499.358040  0.011665 -5.202364  0.005575
   scf:    6   -64499.310466   -64499.310506   -64499.358052  0.000353 -5.201742  0.003915
   scf:    7   -64499.310567   -64499.310537   -64499.358058  0.000345 -5.200892  0.003429
   scf:    8   -64499.310412   -64499.310475   -64499.358059  0.000298 -5.200316  0.003199
   scf:    9   -64499.310588   -64499.310532   -64499.358060  0.000233 -5.200253  0.002166
   scf:   10   -64499.310494   -64499.310513   -64499.358060  0.000090 -5.200083  0.000942

SCF Convergence by DM+H criterion
max |DM_out - DM_in|         :     0.0000901158
max |H_out - H_in|      (eV) :     0.0009417504
SCF cycle converged after 10 iterations

Using DM_out to compute the final energy and forces
No. of atoms with KB's overlaping orbs in proc 0. Max # of overlaps:      16     170

siesta: E_KS(eV) =           -64499.3105

siesta: Atomic forces (eV/Ang):
----------------------------------------
   Tot    0.000092    0.000238    0.000620
----------------------------------------
   Max    1.320084
   Res    0.772630    sqrt( Sum f_i^2 / 3N )
----------------------------------------
   Max    1.320084    constrained

Stress tensor Voigt[x,y,z,yz,xz,xy] (kbar):       -0.39       -0.57       -0.58       -0.01       -0.02       -0.02
(Free)E + p*V (eV/cell)   -64478.8389
Target enthalpy (eV/cell)   -64499.3581

                     ====================================
                        Begin CG opt. move =      2
                     ====================================

outcell: Unit cell vectors (Ang):
       40.000000    0.000000    0.000000
        0.000000   40.000000    0.000000
        0.000000    0.000000   40.000000

outcell: Cell vector modules (Ang)   :   40.000000   40.000000   40.000000
outcell: Cell angles (23,13,12) (deg):     90.0000     90.0000     90.0000
outcell: Cell volume (Ang**3)        :  64000.0000
<dSpData1D:S at geom step 2
  <sparsity:sparsity for geom step 2
    nrows_g=304 nrows=304 sparsity=.7913 nnzs=73126, refcount: 7>
  <dData1D:(new from dSpData1D) n=73126, refcount: 1>
refcount: 1>
new_DM -- step:     3
Re-using DM from previous geometries...
Number of DMs in history: 1
 DM extrapolation coefficients: 
1   1.00000
New DM after history re-use:
<dSpData2D:SpM extrapolated using coords
  <sparsity:sparsity for geom step 2
    nrows_g=304 nrows=304 sparsity=.7913 nnzs=73126, refcount: 9>
  <dData2D:(temp array for extrapolation) n=73126 m=1, refcount: 1>
refcount: 1>
No. of atoms with KB's overlaping orbs in proc 0. Max # of overlaps:      16     156

InitMesh: MESH = 432 x 432 x 432 = 80621568
InitMesh: Mesh cutoff (required, used) =   300.000   322.366 Ry
New grid distribution [1]: sub = 2

        iscf     Eharris(eV)        E_KS(eV)     FreeEng(eV)     dDmax    Ef(eV) dHmax(eV)
   scf:    1   -64502.115908   -64499.871675   -64499.914967  0.221691 -5.159120  1.112624
   scf:    2   -64495.673200   -64498.616248   -64498.673325  0.250354 -5.499870  4.293819
   scf:    3   -64500.179328   -64499.964427   -64500.006990  0.201724 -5.239483  0.240757
   scf:    4   -64499.929964   -64499.957568   -64500.007015  0.033064 -5.238453  0.256525
