Executable      : siesta
Version         : 5.2.2
Architecture    : x86_64
Compiler version: GNU-13.3.0
Compiler flags  : -march=nocona -mtune=haswell -ftree-vectorize -fPIC -fstack-protector-strong -fno-plt -O2 -ffunction-sections -pipe -isystem <prefix>/include -I<prefix>/_build_env/include -fdebug-prefix-map=<prefix>/work=/usr/local/src/conda/siesta-5.2.2 -fdebug-prefix-map=<prefix>=/usr/local/src/conda-prefix -I<prefix>/lib -fallow-argument-mismatch -O3
Parallelisations: none
NetCDF support
NetCDF-4 support
Lua support
DFT-D3 support

Runtime information:
* Directory : /home/jordifaraudo/Documents/kk/prova_or_v2
* Running in serial mode.
>> Start of run:  30-JUN-2025  18:13:48

                           *********************** 
                           *  WELCOME TO SIESTA  * 
                           *********************** 

 NOTE: Siesta V5 introduces some new defaults for basis-set generation
 NOTE: which might lead to slightly different numerical results.
 NOTE: Please see the manual for full details and compatibility measures.


reinit: Reading from file optimization.fdf

reinit: -----------------------------------------------------------------------
reinit: System Name: 
reinit: -----------------------------------------------------------------------
reinit: System Label: SurRel
reinit: -----------------------------------------------------------------------

initatom: Reading input for the pseudopotentials and atomic orbitals ----------
Species number:   1 Atomic number:   79 Label: Au

Ground state valence configuration (from tables):   6s01  6p00  5d10  5f00

---- Processing specs for species: Au
Reading pseudopotential information in PSML from:
  Au.psml
PSML file version: 1.1
Using libxc ids:  101 130
GGA--PBE XC_GGA_X_PBE--XC_GGA_C_PBE pb
PSML uuid: fa497b30-be45-11e7-41fb-494093d7a025
Semicore shell(s) with  8 electrons included in the valence for Au

---- Pseudopotential check for Au

Pseudized shells:
5s( 2.00) rc: 1.46
5p( 6.00) rc: 1.56
5d(10.00) rc: 1.56
5f( 0.00) rc: 1.60
Valence configuration for ps generation: 5s:5p:5d:6s: Total charge:  19.000000
Semicore shell(s): 5s 5p
Fallback to non-perturbative polarization scheme for Au
Please see the manual if this is not desired in principle
For Au, standard SIESTA heuristics set lmxkb to 3
 (one more than the basis l, including polarization orbitals).
Use PS.lmax or PS.KBprojectors blocks to override.

<basis_specs>
===============================================================================
Au                   Z=  79    Mass=  196.97        Charge= 0.17977+309
Lmxo=2 Lmxkb= 3    BasisType=split      Semic=T
L=0  Nsemic=1  Cnfigmx=6
          i=1  nzeta=1  polorb=0  (5s)  (semicore shell)
            splnorm:   0.15000    
               vcte:    40.000    
               rinn:  -0.90000    
               qcoe:    0.0000    
               qyuk:    0.0000    
               qwid:   0.10000E-01
                rcs:    0.0000    
            lambdas:    1.0000    
          i=2  nzeta=2  polorb=0  (6s)  (to be polarized non-perturbatively)
            splnorm:   0.15000    
               vcte:    40.000    
               rinn:  -0.90000    
               qcoe:    0.0000    
               qyuk:    0.0000    
               qwid:   0.10000E-01
                rcs:    0.0000      0.0000    
            lambdas:    1.0000      1.0000    
L=1  Nsemic=1  Cnfigmx=6
          i=1  nzeta=1  polorb=0  (5p)  (semicore shell)
            splnorm:   0.15000    
               vcte:    40.000    
               rinn:  -0.90000    
               qcoe:    0.0000    
               qyuk:    0.0000    
               qwid:   0.10000E-01
                rcs:    0.0000    
            lambdas:    1.0000    
          i=2  nzeta=1  polorb=0  (6p)  (non-perturbative polarization shell)
            splnorm:   0.15000    
               vcte:    40.000    
               rinn:  -0.90000    
               qcoe:    0.0000    
               qyuk:    0.0000    
               qwid:   0.10000E-01
                rcs:    0.0000    
            lambdas:    1.0000    
L=2  Nsemic=0  Cnfigmx=5
          i=1  nzeta=2  polorb=0  (5d)
            splnorm:   0.15000    
               vcte:    40.000    
               rinn:  -0.90000    
               qcoe:    0.0000    
               qyuk:    0.0000    
               qwid:   0.10000E-01
                rcs:    0.0000      0.0000    
            lambdas:    1.0000      1.0000    
-------------------------------------------------------------------------------
L=0  Nkbl=2  erefs: 0.17977+309 0.17977+309
L=1  Nkbl=2  erefs: 0.17977+309 0.17977+309
L=2  Nkbl=1  erefs: 0.17977+309
L=3  Nkbl=1  erefs: 0.17977+309
===============================================================================
</basis_specs>

Using PAO.SplitTailNorm
atom: Called for Au                    (Z =  79)
Maximum radius (at nrval) set to   50.00000 8518

read_vps: Pseudopotential generation method:
read_vps: ONCVPSP-3.Hamann's oncvpsp                        
Valence charge in pseudo generation:   19.00000

read_vps: Pseudopotential includes a core correction:
read_vps: Pseudo-core for xc-correction

xc_check: Exchange-correlation functional:
xc_check: GGA Perdew, Burke & Ernzerhof 1996
Got Vlocal (oncv-fit) from psml data
Choosing vlocal chloc cutoff:  5.037181
qtot up to nchloc:   18.99999407
atom: Maximum radius for chlocal:    5.03718
atom: Maximum radius for r*vlocal+2*Zval:    5.03718
Reading KB projs from Au psml data
Using scalar-relativistic projectors in PSML file

PSML: Kleinman-Bylander projectors: 
   l= 0   rc=  1.474132   Ekb= 18.815768
   l= 0   rc=  1.474132   Ekb= -0.390506
   l= 1   rc=  1.583336   Ekb=  4.781134
   l= 1   rc=  1.583336   Ekb= -3.699696
   l= 2   rc=  1.583336   Ekb=  2.968821
   l= 2   rc=  1.583336   Ekb=  0.574456
   l= 3   rc=  1.622038   Ekb=  2.312314

PSML: Total number of  Kleinman-Bylander projectors:  25
atom: -------------------------------------------------------------------------

atom: SANKEY-TYPE ORBITALS:
atom: Selected multiple-zeta basis: split     

SPLIT: Orbitals with angular momentum L= 0

SPLIT: Basis orbitals for state 5s

SPLIT: PAO cut-off radius determined from an
SPLIT: energy shift=  0.000735 Ry
Split based on tail norm

   izeta = 1
                 lambda =    1.000000
                     rc =    2.925359
                 energy =   -7.964134
                kinetic =    2.893592
    potential(screened) =  -10.857725
       potential(ionic) =  -37.457701

SPLIT: Basis orbitals for state 6s

SPLIT: PAO cut-off radius determined from an
SPLIT: energy shift=  0.000735 Ry
Split based on tail norm

   izeta = 1
                 lambda =    1.000000
                     rc =    8.033223
                 energy =   -0.536485
                kinetic =    1.477051
    potential(screened) =   -2.013535
       potential(ionic) =  -17.521292

   izeta = 2
                 rmatch =    4.927355
              splitnorm =    0.150000
                 energy =   -0.413505
                kinetic =    2.478661
    potential(screened) =   -2.892166
       potential(ionic) =  -20.911581

SPLIT: Orbitals with angular momentum L= 1

SPLIT: Basis orbitals for state 5p

SPLIT: PAO cut-off radius determined from an
SPLIT: energy shift=  0.000735 Ry
Split based on tail norm

   izeta = 1
                 lambda =    1.000000
                     rc =    3.518348
                 energy =   -4.393065
                kinetic =    4.954761
    potential(screened) =   -9.347826
       potential(ionic) =  -34.716971

SPLIT: Basis orbitals for state 6p
SPLIT: Non-perturbative polarization orbs for state 6s
SPLIT: rc(1st zeta) (re)set to: 8.0332 (expansion factor: 1.0000)
Split based on tail norm

   izeta = 1
                 lambda =    1.000000
                     rc =    8.033223
                 energy =   -0.028561
                kinetic =    0.837945
    potential(screened) =   -0.866506
       potential(ionic) =  -11.902774

SPLIT: Orbitals with angular momentum L= 2

SPLIT: Basis orbitals for state 5d

SPLIT: PAO cut-off radius determined from an
SPLIT: energy shift=  0.000735 Ry
Split based on tail norm

   izeta = 1
                 lambda =    1.000000
                     rc =    6.393405
                 energy =   -0.504592
                kinetic =    4.935315
    potential(screened) =   -5.439906
       potential(ionic) =  -26.571989

   izeta = 2
                 rmatch =    3.462344
              splitnorm =    0.150000
                 energy =   -0.397189
                kinetic =    6.101362
    potential(screened) =   -6.498551
       potential(ionic) =  -29.253309
atom: Total number of Sankey-type orbitals: 19

atm_pop: Valence configuration (for local Pseudopot. screening):
 5s( 2.00) 6s( 1.00)                                                  
 5p( 6.00) 6p( 0.00)                                                  
 5d(10.00)                                                            
Vna: chval, zval:   19.00000  19.00000

Vna:  Cut-off radius for the neutral-atom potential:   8.033223
comcore: Pseudo-core radius Rcore=  2.583037

atom: _________________________________________________________________________

prinput: Basis input 

PAO.BasisType split     

%block ChemicalSpeciesLabel
    1   79 Au                      # Species index, atomic number, species label
%endblock ChemicalSpeciesLabel

%block PAO.Basis                 # Define Basis set
# WARNING: This information might be incomplete!
Au                    5                    # Species label, number of l-shells
 n=5   0   1                         # n, l, Nzeta 
   2.925   
   1.000   
 n=6   0   2                         # n, l, Nzeta 
   8.033      4.927   
   1.000      1.000   
 n=5   1   1                         # n, l, Nzeta 
   3.518   
   1.000   
 n=6   1   1                         # n, l, Nzeta 
   8.033   
   1.000   
 n=5   2   2                         # n, l, Nzeta 
   6.393      3.462   
   1.000      1.000   
%endblock PAO.Basis

prinput: ----------------------------------------------------------------------

Dumping basis to NetCDF file Au.ion.nc
coor:   Atomic-coordinates input format  =     Cartesian coordinates
coor:                                          (in Angstroms)

siesta: Atomic coordinates (Bohr) and species
siesta:      7.91147   7.21633   7.69874  1        1
siesta:     10.94329  11.12368   7.90883  1        2
siesta:     10.97755   7.66288  11.60182  1        3
siesta:      6.70530  10.58660  11.06782  1        4
siesta:      8.18915  15.14837   9.32920  1        5
siesta:     12.04421  18.88662   9.85413  1        6
siesta:     12.76948  14.17053  11.24737  1        7
siesta:      8.50781  18.51412  13.14048  1        8
siesta:      8.24901   8.84515  15.69941  1        9
siesta:     12.82642  10.88053  14.83569  1       10
siesta:     12.07512   9.42576  19.54451  1       11
siesta:      8.45649  12.60538  19.12427  1       12
siesta:      7.04569  13.98522  14.54800  1       13
siesta:     13.24730  17.67285  14.83006  1       14
siesta:     13.28451  14.29349  18.46493  1       15
siesta:      9.07282  17.34321  17.93630  1       16

siesta: System type = molecule  

initatomlists: Number of atoms, orbitals, and projectors:     16   304   400

coxmol: Writing XMOL coordinates into file SurRel.xyz                                                                                                                                                                                                                          

siesta: ******************** Simulation parameters ****************************
siesta:
siesta: The following are some of the parameters of the simulation.
siesta: A complete list of the parameters used, including default values,
siesta: can be found in file out.fdf
siesta:
redata: Spin configuration                          = none
redata: Number of spin components                   = 1
redata: Time-Reversal Symmetry                      = T
redata: Spin spiral                                 = F
redata: Long output                                 =   F
redata: Number of Atomic Species                    =        1
redata: Charge density info will appear in .RHO file
redata: Write Mulliken charges (when)               = none
redata: Write Mulliken Pop.                         = NO
redata: Write Hirshfeld charges (when)              = none
redata: Write Voronoi charges (when)                = none
redata: Write spin charge (when)                    = none
redata: Matel table size (NRTAB)                    =     1024
redata: Mesh Cutoff                                 =   300.0000 Ry
redata: Net charge of the system                    =     0.0000 |e|
redata: Min. number of SCF Iter                     =        0
redata: Max. number of SCF Iter                     =     1000
redata: SCF convergence failure will abort job
redata: SCF mix quantity                            = Hamiltonian
redata: Mix DM or H after convergence               =   F
redata: Recompute H after scf cycle                 =   F
redata: Mix DM in first SCF step                    =   T
redata: Write Pulay info on disk                    =   F
redata: New DM Occupancy tolerance                  = 0.000000000001
redata: No kicks to SCF
redata: DM Mixing Weight for Kicks                  =     0.5000
redata: Require Harris convergence for SCF          =   F
redata: Harris energy tolerance for SCF             =     0.000100 eV
redata: Require DM convergence for SCF              =   T
redata: DM tolerance for SCF                        =     0.000100
redata: Require EDM convergence for SCF             =   F
redata: EDM tolerance for SCF                       =     0.001000 eV
redata: Require H convergence for SCF               =   T
redata: Hamiltonian tolerance for SCF               =     0.001000 eV
redata: Require (free) Energy convergence for SCF   =   F
redata: (free) Energy tolerance for SCF             =     0.000100 eV
redata: Using DFT-D3 dispersion                     =   F
redata: Using Saved Data (generic)                  =   F
redata: Use continuation files for DM               =   T
redata: Neglect nonoverlap interactions             =   F
redata: Method of Calculation                       = Diagonalization
redata: Electronic Temperature                      =   290.1130 K
redata: Fix the spin of the system                  =   F
redata: Max. number of TDED Iter                    =        1
redata: Number of TDED substeps                     =        3
redata: Dynamics option                             = CG coord. optimization
redata: Variable cell                               =   F
redata: Use continuation files for CG               =   F
redata: Max atomic displ per move                   =     0.1058 Ang
redata: Maximum number of optimization moves        =       15
redata: Force tolerance                             =     0.0200 eV/Ang
mix.SCF: Pulay mixing                            = Pulay
mix.SCF:    Variant                              = stable
mix.SCF:    History steps                        = 2
mix.SCF:    Linear mixing weight                 =     0.250000
mix.SCF:    Mixing weight                        =     0.250000
mix.SCF:    SVD condition                        = 0.1000E-07
redata: Save all siesta data in one NC              =   F
redata: ***********************************************************************

%block SCF.Mixers
  Pulay
%endblock SCF.Mixers

%block SCF.Mixer.Pulay
  # Mixing method
  method pulay
  variant stable

  # Mixing options
  weight 0.2500
  weight.linear 0.2500
  history 2
%endblock SCF.Mixer.Pulay

DM_history_depth set to one: no extrapolation allowed by default for geometry relaxation
Size of DM history Fstack: 1
Total number of electrons:   304.000000
Total ionic charge:   304.000000

siesta: k-grid: Number of k-points = 1
siesta: k-point is Gamma-only

diag: Algorithm                                     = D&C
diag: Used triangular part                          = Lower
diag: Absolute tolerance                            =  0.100E-15
diag: Orthogonalization factor                      =  0.100E-05
diag: Memory factor                                 =  1.0000


ts: **************************************************************
ts: Save H and S matrices                           =    F
ts: Save DM and EDM matrices                        =    F
ts: Only save the overlap matrix S                  =    F
ts: **************************************************************

************************ Begin: TS CHECKS AND WARNINGS ************************
************************ End: TS CHECKS AND WARNINGS **************************


                     ====================================
                        Begin CG opt. move =      0
                     ====================================

outcell: Unit cell vectors (Ang):
       40.000000    0.000000    0.000000
        0.000000   40.000000    0.000000
        0.000000    0.000000   40.000000

outcell: Cell vector modules (Ang)   :   40.000000   40.000000   40.000000
outcell: Cell angles (23,13,12) (deg):     90.0000     90.0000     90.0000
outcell: Cell volume (Ang**3)        :  64000.0000
<dSpData1D:S at geom step 0
  <sparsity:sparsity for geom step 0
    nrows_g=304 nrows=304 sparsity=.8401 nnzs=77640, refcount: 7>
  <dData1D:(new from dSpData1D) n=77640, refcount: 1>
refcount: 1>
new_DM -- step:     1
Initializing Density Matrix...

Attempting to read DM from file... Failed...
DM filled with atomic data:
<dSpData2D:DM initialized from atoms
  <sparsity:sparsity for geom step 0
    nrows_g=304 nrows=304 sparsity=.8401 nnzs=77640, refcount: 8>
  <dData2D:DM n=77640 m=1, refcount: 1>
refcount: 1>
No. of atoms with KB's overlaping orbs in proc 0. Max # of overlaps:      16     175

InitMesh: MESH = 432 x 432 x 432 = 80621568
InitMesh: Mesh cutoff (required, used) =   300.000   322.366 Ry
New grid distribution [1]: sub = 2

stepf: Fermi-Dirac step function

siesta: Program's energy decomposition (eV):
siesta: Ebs     =    -12985.740522
siesta: Eions   =     81244.997452
siesta: Ena     =      8165.035134
siesta: Ekin    =     17895.733636
siesta: Enl     =      1083.897932
siesta: Eso     =         0.000000
siesta: Edftu   =         0.000000
siesta: DEna    =       774.352692
siesta: DUscf   =        46.232959
siesta: DUext   =         0.000000
siesta: Ex      =    -10546.029135
siesta: Ec      =      -646.370183
siesta: Exc     =    -11192.399318
siesta: EbV     =         0.000000
siesta: eta*DQ  =         0.000000
siesta: Emadel  =         0.000000
siesta: Emeta   =         0.000000
siesta: Emolmec =         0.000000
siesta: Ekinion =         0.000000
siesta: Eharris =    -64367.548366
siesta: Etot    =    -64472.144418
siesta: FreeEng =    -64472.168127

        iscf     Eharris(eV)        E_KS(eV)     FreeEng(eV)     dDmax    Ef(eV) dHmax(eV)
   scf:    1   -64367.548366   -64472.144418   -64472.168127  0.663655 -3.213548 15.330487
timer: Routine,Calls,Time,% = IterSCF        1      36.961  44.45
   scf:    2   -64502.935298   -64496.270533   -64496.292444  0.485352 -4.839861  3.806693
   scf:    3   -64498.631562   -64498.263644   -64498.308434  0.151365 -4.902473  2.035425
   scf:    4   -64498.709424   -64498.544963   -64498.588374  0.048242 -4.998667  0.680022
   scf:    5   -64498.669844   -64498.621330   -64498.668344  0.036378 -5.071039  0.415812
   scf:    6   -64498.629809   -64498.634047   -64498.682293  0.021648 -5.111353  0.291860
   scf:    7   -64498.637134   -64498.639568   -64498.686408  0.011890 -5.121625  0.146475
   scf:    8   -64498.638288   -64498.639806   -64498.688348  0.009561 -5.134888  0.090396
   scf:    9   -64498.641894   -64498.641090   -64498.688734  0.003837 -5.145712  0.065500
   scf:   10   -64498.638626   -64498.640107   -64498.688842  0.005130 -5.153781  0.065803
   scf:   11   -64498.641608   -64498.640996   -64498.689013  0.003057 -5.157878  0.033426
   scf:   12   -64498.640268   -64498.640666   -64498.689062  0.001862 -5.162589  0.027519
   scf:   13   -64498.641236   -64498.640978   -64498.689072  0.001301 -5.166502  0.021290
   scf:   14   -64498.640264   -64498.640651   -64498.689085  0.001582 -5.168835  0.021165
   scf:   15   -64498.641061   -64498.640867   -64498.689101  0.000898 -5.170530  0.010429
   scf:   16   -64498.640618   -64498.640746   -64498.689103  0.000569 -5.172346  0.010575
   scf:   17   -64498.641008   -64498.640882   -64498.689104  0.000614 -5.173637  0.007999
   scf:   18   -64498.640643   -64498.640766   -64498.689106  0.000540 -5.174398  0.006790
   scf:   19   -64498.640887   -64498.640827   -64498.689108  0.000275 -5.175086  0.003598
   scf:   20   -64498.640731   -64498.640780   -64498.689108  0.000213 -5.175796  0.004193
   scf:   21   -64498.640889   -64498.640835   -64498.689108  0.000256 -5.176175  0.002895
   scf:   22   -64498.640757   -64498.640797   -64498.689109  0.000174 -5.176468  0.002159
   scf:   23   -64498.640835   -64498.640816   -64498.689109  0.000091 -5.176735  0.001336
   scf:   24   -64498.640776   -64498.640796   -64498.689109  0.000088 -5.176994  0.001627
   scf:   25   -64498.640837   -64498.640817   -64498.689109  0.000096 -5.177105  0.000988

SCF Convergence by DM+H criterion
max |DM_out - DM_in|         :     0.0000956684
max |H_out - H_in|      (eV) :     0.0009878847
SCF cycle converged after 25 iterations

Using DM_out to compute the final energy and forces
No. of atoms with KB's overlaping orbs in proc 0. Max # of overlaps:      16     175

siesta: E_KS(eV) =           -64498.6408

siesta: E_KS - E_eggbox =    -64498.6408

siesta: Atomic forces (eV/Ang):
----------------------------------------
   Tot    0.000511    0.001261   -0.000258
----------------------------------------
   Max    1.730674
   Res    1.067276    sqrt( Sum f_i^2 / 3N )
----------------------------------------
   Max    1.730674    constrained

Stress tensor Voigt[x,y,z,yz,xz,xy] (kbar):       -0.54       -0.73       -0.74       -0.01       -0.02       -0.03
(Free)E + p*V (eV/cell)   -64471.8330
Target enthalpy (eV/cell)   -64498.6891

                     ====================================
                        Begin CG opt. move =      1
                     ====================================

outcell: Unit cell vectors (Ang):
       40.000000    0.000000    0.000000
        0.000000   40.000000    0.000000
        0.000000    0.000000   40.000000

outcell: Cell vector modules (Ang)   :   40.000000   40.000000   40.000000
outcell: Cell angles (23,13,12) (deg):     90.0000     90.0000     90.0000
outcell: Cell volume (Ang**3)        :  64000.0000
<dSpData1D:S at geom step 1
  <sparsity:sparsity for geom step 1
    nrows_g=304 nrows=304 sparsity=.8237 nnzs=76126, refcount: 7>
  <dData1D:(new from dSpData1D) n=76126, refcount: 1>
refcount: 1>
new_DM -- step:     2
Re-using DM from previous geometries...
Number of DMs in history: 1
 DM extrapolation coefficients: 
1   1.00000
New DM after history re-use:
<dSpData2D:SpM extrapolated using coords
  <sparsity:sparsity for geom step 1
    nrows_g=304 nrows=304 sparsity=.8237 nnzs=76126, refcount: 9>
  <dData2D:(temp array for extrapolation) n=76126 m=1, refcount: 1>
refcount: 1>
No. of atoms with KB's overlaping orbs in proc 0. Max # of overlaps:      16     170

InitMesh: MESH = 432 x 432 x 432 = 80621568
InitMesh: Mesh cutoff (required, used) =   300.000   322.366 Ry
New grid distribution [1]: sub = 2

        iscf     Eharris(eV)        E_KS(eV)     FreeEng(eV)     dDmax    Ef(eV) dHmax(eV)
   scf:    1   -64501.164105   -64499.268150   -64499.313756  0.131230 -5.147751  0.724675
   scf:    2   -64497.383364   -64498.702857   -64498.759097  0.133224 -5.380642  2.816892
   scf:    3   -64499.405286   -64499.309943   -64499.355056  0.107246 -5.202738  0.172068
   scf:    4   -64499.289766   -64499.305161   -64499.354949  0.021577 -5.202418  0.187070
   scf:    5   -64499.313114   -64499.310544   -64499.358040  0.011665 -5.202364  0.005575
   scf:    6   -64499.310466   -64499.310506   -64499.358052  0.000353 -5.201742  0.003915
   scf:    7   -64499.310567   -64499.310537   -64499.358058  0.000345 -5.200892  0.003429
   scf:    8   -64499.310412   -64499.310475   -64499.358059  0.000298 -5.200316  0.003199
   scf:    9   -64499.310588   -64499.310532   -64499.358060  0.000233 -5.200253  0.002166
   scf:   10   -64499.310494   -64499.310513   -64499.358060  0.000090 -5.200083  0.000942

SCF Convergence by DM+H criterion
max |DM_out - DM_in|         :     0.0000901158
max |H_out - H_in|      (eV) :     0.0009417504
SCF cycle converged after 10 iterations

Using DM_out to compute the final energy and forces
No. of atoms with KB's overlaping orbs in proc 0. Max # of overlaps:      16     170

siesta: E_KS(eV) =           -64499.3105

siesta: Atomic forces (eV/Ang):
----------------------------------------
   Tot    0.000092    0.000238    0.000620
----------------------------------------
   Max    1.320084
   Res    0.772630    sqrt( Sum f_i^2 / 3N )
----------------------------------------
   Max    1.320084    constrained

Stress tensor Voigt[x,y,z,yz,xz,xy] (kbar):       -0.39       -0.57       -0.58       -0.01       -0.02       -0.02
(Free)E + p*V (eV/cell)   -64478.8389
Target enthalpy (eV/cell)   -64499.3581

                     ====================================
                        Begin CG opt. move =      2
                     ====================================

outcell: Unit cell vectors (Ang):
       40.000000    0.000000    0.000000
        0.000000   40.000000    0.000000
        0.000000    0.000000   40.000000

outcell: Cell vector modules (Ang)   :   40.000000   40.000000   40.000000
outcell: Cell angles (23,13,12) (deg):     90.0000     90.0000     90.0000
outcell: Cell volume (Ang**3)        :  64000.0000
<dSpData1D:S at geom step 2
  <sparsity:sparsity for geom step 2
    nrows_g=304 nrows=304 sparsity=.7913 nnzs=73126, refcount: 7>
  <dData1D:(new from dSpData1D) n=73126, refcount: 1>
refcount: 1>
new_DM -- step:     3
Re-using DM from previous geometries...
Number of DMs in history: 1
 DM extrapolation coefficients: 
1   1.00000
New DM after history re-use:
<dSpData2D:SpM extrapolated using coords
  <sparsity:sparsity for geom step 2
    nrows_g=304 nrows=304 sparsity=.7913 nnzs=73126, refcount: 9>
  <dData2D:(temp array for extrapolation) n=73126 m=1, refcount: 1>
refcount: 1>
No. of atoms with KB's overlaping orbs in proc 0. Max # of overlaps:      16     156

InitMesh: MESH = 432 x 432 x 432 = 80621568
InitMesh: Mesh cutoff (required, used) =   300.000   322.366 Ry
New grid distribution [1]: sub = 2

        iscf     Eharris(eV)        E_KS(eV)     FreeEng(eV)     dDmax    Ef(eV) dHmax(eV)
   scf:    1   -64502.115908   -64499.871675   -64499.914967  0.221691 -5.159120  1.112624
   scf:    2   -64495.673200   -64498.616248   -64498.673325  0.250354 -5.499870  4.293819
   scf:    3   -64500.179328   -64499.964427   -64500.006990  0.201724 -5.239483  0.240757
   scf:    4   -64499.929964   -64499.957568   -64500.007015  0.033064 -5.238453  0.256525
   scf:    5   -64499.970618   -64499.966871   -64500.012962  0.018160 -5.238389  0.011407
   scf:    6   -64499.966676   -64499.966777   -64500.012991  0.000914 -5.237559  0.005609
   scf:    7   -64499.966835   -64499.966807   -64500.013001  0.000491 -5.236628  0.005824
   scf:    8   -64499.966661   -64499.966736   -64500.013005  0.000752 -5.235660  0.005253
   scf:    9   -64499.966886   -64499.966813   -64500.013007  0.000460 -5.235592  0.004348
   scf:   10   -64499.966757   -64499.966785   -64500.013008  0.000227 -5.235308  0.001393
   scf:   11   -64499.966814   -64499.966800   -64500.013008  0.000114 -5.235022  0.001684
   scf:   12   -64499.966739   -64499.966770   -64500.013008  0.000161 -5.234849  0.001387
   scf:   13   -64499.966815   -64499.966793   -64500.013009  0.000119 -5.234809  0.000805
   scf:   14   -64499.966781   -64499.966787   -64500.013009  0.000041 -5.234731  0.000378

SCF Convergence by DM+H criterion
max |DM_out - DM_in|         :     0.0000410297
max |H_out - H_in|      (eV) :     0.0003777422
SCF cycle converged after 14 iterations

Using DM_out to compute the final energy and forces
No. of atoms with KB's overlaping orbs in proc 0. Max # of overlaps:      16     156

siesta: E_KS(eV) =           -64499.9668

siesta: Atomic forces (eV/Ang):
----------------------------------------
   Tot    0.000141   -0.000555    0.000346
----------------------------------------
   Max    0.854767
   Res    0.434262    sqrt( Sum f_i^2 / 3N )
----------------------------------------
   Max    0.854767    constrained

Stress tensor Voigt[x,y,z,yz,xz,xy] (kbar):       -0.18       -0.35       -0.36       -0.01       -0.02       -0.02
(Free)E + p*V (eV/cell)   -64488.1580
Target enthalpy (eV/cell)   -64500.0130

                     ====================================
                        Begin CG opt. move =      3
                     ====================================

outcell: Unit cell vectors (Ang):
       40.000000    0.000000    0.000000
        0.000000   40.000000    0.000000
        0.000000    0.000000   40.000000

outcell: Cell vector modules (Ang)   :   40.000000   40.000000   40.000000
outcell: Cell angles (23,13,12) (deg):     90.0000     90.0000     90.0000
outcell: Cell volume (Ang**3)        :  64000.0000
<dSpData1D:S at geom step 3
  <sparsity:sparsity for geom step 3
    nrows_g=304 nrows=304 sparsity=.7519 nnzs=69490, refcount: 7>
  <dData1D:(new from dSpData1D) n=69490, refcount: 1>
refcount: 1>
new_DM -- step:     4
Re-using DM from previous geometries...
Number of DMs in history: 1
 DM extrapolation coefficients: 
1   1.00000
New DM after history re-use:
<dSpData2D:SpM extrapolated using coords
  <sparsity:sparsity for geom step 3
    nrows_g=304 nrows=304 sparsity=.7519 nnzs=69490, refcount: 9>
  <dData2D:(temp array for extrapolation) n=69490 m=1, refcount: 1>
refcount: 1>
No. of atoms with KB's overlaping orbs in proc 0. Max # of overlaps:      16     146

InitMesh: MESH = 432 x 432 x 432 = 80621568
InitMesh: Mesh cutoff (required, used) =   300.000   322.366 Ry
New grid distribution [1]: sub = 2

        iscf     Eharris(eV)        E_KS(eV)     FreeEng(eV)     dDmax    Ef(eV) dHmax(eV)
   scf:    1   -64501.925309   -64500.003868   -64500.044004  0.369902 -5.185936  1.668379
   scf:    2   -64491.288838   -64497.403552   -64497.461371  0.487850 -5.659475  6.380684
   scf:    3   -64500.690083   -64500.198185   -64500.237566  0.393304 -5.297061  0.276395
   scf:    4   -64500.153292   -64500.190216   -64500.238098  0.041608 -5.295154  0.293413
   scf:    5   -64500.207242   -64500.202695   -64500.246270  0.023896 -5.294951  0.021785
   scf:    6   -64500.202248   -64500.202489   -64500.246340  0.002447 -5.293864  0.009450
   scf:    7   -64500.202545   -64500.202520   -64500.246360  0.000893 -5.292797  0.007626
   scf:    8   -64500.202453   -64500.202490   -64500.246369  0.001300 -5.291644  0.006448
   scf:    9   -64500.202583   -64500.202540   -64500.246373  0.000816 -5.291219  0.006537
   scf:   10   -64500.202468   -64500.202505   -64500.246375  0.000576 -5.290920  0.002584
   scf:   11   -64500.202553   -64500.202529   -64500.246376  0.000214 -5.290591  0.002427
   scf:   12   -64500.202469   -64500.202499   -64500.246377  0.000253 -5.290339  0.001856
   scf:   13   -64500.202553   -64500.202526   -64500.246377  0.000172 -5.290219  0.001522
   scf:   14   -64500.202499   -64500.202513   -64500.246377  0.000105 -5.290108  0.000755
   scf:   15   -64500.202530   -64500.202521   -64500.246377  0.000067 -5.289994  0.000797

SCF Convergence by DM+H criterion
max |DM_out - DM_in|         :     0.0000668964
max |H_out - H_in|      (eV) :     0.0007966216
SCF cycle converged after 15 iterations

Using DM_out to compute the final energy and forces
No. of atoms with KB's overlaping orbs in proc 0. Max # of overlaps:      16     146

siesta: E_KS(eV) =           -64500.2025

siesta: Atomic forces (eV/Ang):
----------------------------------------
   Tot   -0.000779   -0.000596   -0.000083
----------------------------------------
   Max    1.092753
   Res    0.372310    sqrt( Sum f_i^2 / 3N )
----------------------------------------
   Max    1.092753    constrained

Stress tensor Voigt[x,y,z,yz,xz,xy] (kbar):        0.06       -0.07       -0.09       -0.01       -0.01       -0.02
(Free)E + p*V (eV/cell)   -64499.0132
Target enthalpy (eV/cell)   -64500.2464

                     ====================================
                        Begin CG opt. move =      4
                     ====================================

outcell: Unit cell vectors (Ang):
       40.000000    0.000000    0.000000
        0.000000   40.000000    0.000000
        0.000000    0.000000   40.000000

outcell: Cell vector modules (Ang)   :   40.000000   40.000000   40.000000
outcell: Cell angles (23,13,12) (deg):     90.0000     90.0000     90.0000
outcell: Cell volume (Ang**3)        :  64000.0000
<dSpData1D:S at geom step 4
  <sparsity:sparsity for geom step 4
    nrows_g=304 nrows=304 sparsity=.7531 nnzs=69600, refcount: 7>
  <dData1D:(new from dSpData1D) n=69600, refcount: 1>
refcount: 1>
new_DM -- step:     5
Re-using DM from previous geometries...
Number of DMs in history: 1
 DM extrapolation coefficients: 
1   1.00000
New DM after history re-use:
<dSpData2D:SpM extrapolated using coords
  <sparsity:sparsity for geom step 4
    nrows_g=304 nrows=304 sparsity=.7531 nnzs=69600, refcount: 9>
  <dData2D:(temp array for extrapolation) n=69600 m=1, refcount: 1>
refcount: 1>
No. of atoms with KB's overlaping orbs in proc 0. Max # of overlaps:      16     146

InitMesh: MESH = 432 x 432 x 432 = 80621568
InitMesh: Mesh cutoff (required, used) =   300.000   322.366 Ry
New grid distribution [1]: sub = 2

        iscf     Eharris(eV)        E_KS(eV)     FreeEng(eV)     dDmax    Ef(eV) dHmax(eV)
   scf:    1   -64499.695173   -64500.214505   -64500.259311  0.067022 -5.296213  0.285770
   scf:    2   -64499.956477   -64500.139026   -64500.179807  0.083059 -5.217248  1.147866
   scf:    3   -64500.231381   -64500.220281   -64500.265046  0.067310 -5.278612  0.031960
   scf:    4   -64500.221676   -64500.221148   -64500.265057  0.004412 -5.278346  0.034508
   scf:    5   -64500.220388   -64500.220810   -64500.265154  0.002379 -5.278346  0.002487
   scf:    6   -64500.220827   -64500.220819   -64500.265155  0.000162 -5.278525  0.001339
   scf:    7   -64500.220806   -64500.220812   -64500.265156  0.000139 -5.278770  0.000953
   scf:    8   -64500.220836   -64500.220824   -64500.265156  0.000123 -5.278911  0.000926
   scf:    9   -64500.220802   -64500.220813   -64500.265156  0.000059 -5.278950  0.000564

SCF Convergence by DM+H criterion
max |DM_out - DM_in|         :     0.0000592939
max |H_out - H_in|      (eV) :     0.0005643153
SCF cycle converged after 9 iterations

Using DM_out to compute the final energy and forces
No. of atoms with KB's overlaping orbs in proc 0. Max # of overlaps:      16     146

siesta: E_KS(eV) =           -64500.2208

siesta: Atomic forces (eV/Ang):
----------------------------------------
   Tot   -0.001826   -0.000860   -0.000518
----------------------------------------
   Max    0.994442
   Res    0.341299    sqrt( Sum f_i^2 / 3N )
----------------------------------------
   Max    0.994442    constrained

Stress tensor Voigt[x,y,z,yz,xz,xy] (kbar):        0.02       -0.11       -0.14       -0.01       -0.02       -0.02
(Free)E + p*V (eV/cell)   -64497.2229
Target enthalpy (eV/cell)   -64500.2652

cgvc: Finished line minimization    1.  Mean atomic displacement =    0.1293

                     ====================================
                        Begin CG opt. move =      5
                     ====================================

outcell: Unit cell vectors (Ang):
       40.000000    0.000000    0.000000
        0.000000   40.000000    0.000000
        0.000000    0.000000   40.000000

outcell: Cell vector modules (Ang)   :   40.000000   40.000000   40.000000
outcell: Cell angles (23,13,12) (deg):     90.0000     90.0000     90.0000
outcell: Cell volume (Ang**3)        :  64000.0000
<dSpData1D:S at geom step 5
  <sparsity:sparsity for geom step 5
    nrows_g=304 nrows=304 sparsity=.7335 nnzs=67786, refcount: 7>
  <dData1D:(new from dSpData1D) n=67786, refcount: 1>
refcount: 1>
new_DM -- step:     6
Re-using DM from previous geometries...
Number of DMs in history: 1
 DM extrapolation coefficients: 
1   1.00000
New DM after history re-use:
<dSpData2D:SpM extrapolated using coords
  <sparsity:sparsity for geom step 5
    nrows_g=304 nrows=304 sparsity=.7335 nnzs=67786, refcount: 9>
  <dData2D:(temp array for extrapolation) n=67786 m=1, refcount: 1>
refcount: 1>
No. of atoms with KB's overlaping orbs in proc 0. Max # of overlaps:      16     132

InitMesh: MESH = 432 x 432 x 432 = 80621568
InitMesh: Mesh cutoff (required, used) =   300.000   322.366 Ry
New grid distribution [1]: sub = 2

        iscf     Eharris(eV)        E_KS(eV)     FreeEng(eV)     dDmax    Ef(eV) dHmax(eV)
   scf:    1   -64500.561688   -64500.048358   -64500.106440  0.246438 -5.268766  1.401504
   scf:    2   -64484.705271   -64495.398974   -64495.399227  0.579581 -5.247745  7.744648
   scf:    3   -64501.750897   -64500.176865   -64500.215081  0.371264 -5.278951  0.955233
   scf:    4   -64499.716502   -64500.138964   -64500.200512  0.236594 -5.274049  0.924793
   scf:    5   -64500.257045   -64500.261799   -64500.314479  0.143989 -5.275070  0.102539
   scf:    6   -64500.259239   -64500.261164   -64500.316054  0.012577 -5.273839  0.027413
   scf:    7   -64500.261439   -64500.261416   -64500.316116  0.004507 -5.273100  0.027303
   scf:    8   -64500.261468   -64500.261480   -64500.316191  0.002748 -5.272851  0.010342
   scf:    9   -64500.261221   -64500.261355   -64500.316206  0.000818 -5.272545  0.006617
   scf:   10   -64500.261556   -64500.261457   -64500.316213  0.000617 -5.272402  0.004330
   scf:   11   -64500.261372   -64500.261415   -64500.316216  0.000288 -5.272286  0.003068
   scf:   12   -64500.261483   -64500.261449   -64500.316218  0.000260 -5.272208  0.002425
   scf:   13   -64500.261383   -64500.261417   -64500.316219  0.000192 -5.272181  0.002098
   scf:   14   -64500.261457   -64500.261437   -64500.316220  0.000199 -5.272161  0.001256
   scf:   15   -64500.261423   -64500.261430   -64500.316220  0.000075 -5.272149  0.000963

SCF Convergence by DM+H criterion
max |DM_out - DM_in|         :     0.0000748670
max |H_out - H_in|      (eV) :     0.0009626927
SCF cycle converged after 15 iterations

Using DM_out to compute the final energy and forces
No. of atoms with KB's overlaping orbs in proc 0. Max # of overlaps:      16     132

siesta: E_KS(eV) =           -64500.2614

siesta: Atomic forces (eV/Ang):
----------------------------------------
   Tot   -0.002217   -0.000342    0.000669
----------------------------------------
   Max    0.895318
   Res    0.281844    sqrt( Sum f_i^2 / 3N )
----------------------------------------
   Max    0.895318    constrained

Stress tensor Voigt[x,y,z,yz,xz,xy] (kbar):        0.05        0.05        0.03       -0.02        0.01        0.00
(Free)E + p*V (eV/cell)   -64501.9654
Target enthalpy (eV/cell)   -64500.3162

                     ====================================
                        Begin CG opt. move =      6
                     ====================================

outcell: Unit cell vectors (Ang):
       40.000000    0.000000    0.000000
        0.000000   40.000000    0.000000
        0.000000    0.000000   40.000000

outcell: Cell vector modules (Ang)   :   40.000000   40.000000   40.000000
outcell: Cell angles (23,13,12) (deg):     90.0000     90.0000     90.0000
outcell: Cell volume (Ang**3)        :  64000.0000
<dSpData1D:S at geom step 6
  <sparsity:sparsity for geom step 6
    nrows_g=304 nrows=304 sparsity=.7502 nnzs=69326, refcount: 7>
  <dData1D:(new from dSpData1D) n=69326, refcount: 1>
refcount: 1>
new_DM -- step:     7
Re-using DM from previous geometries...
Number of DMs in history: 1
 DM extrapolation coefficients: 
1   1.00000
New DM after history re-use:
<dSpData2D:SpM extrapolated using coords
  <sparsity:sparsity for geom step 6
    nrows_g=304 nrows=304 sparsity=.7502 nnzs=69326, refcount: 9>
  <dData2D:(temp array for extrapolation) n=69326 m=1, refcount: 1>
refcount: 1>
No. of atoms with KB's overlaping orbs in proc 0. Max # of overlaps:      16     146

InitMesh: MESH = 432 x 432 x 432 = 80621568
InitMesh: Mesh cutoff (required, used) =   300.000   322.366 Ry
New grid distribution [1]: sub = 2

        iscf     Eharris(eV)        E_KS(eV)     FreeEng(eV)     dDmax    Ef(eV) dHmax(eV)
   scf:    1   -64499.516294   -64500.344202   -64500.389371  0.093822 -5.271289  0.436573
   scf:    2   -64495.258420   -64498.719433   -64498.753715  0.435806 -5.274381  4.233818
   scf:    3   -64500.468656   -64500.359978   -64500.409552  0.397435 -5.273116  0.081662
   scf:    4   -64500.355408   -64500.358441   -64500.410123  0.011399 -5.273576  0.046134
   scf:    5   -64500.358979   -64500.358929   -64500.410383  0.006893 -5.273975  0.034470
   scf:    6   -64500.359922   -64500.359526   -64500.410421  0.003975 -5.274297  0.022794
   scf:    7   -64500.358549   -64500.359073   -64500.410477  0.002660 -5.274493  0.008646
   scf:    8   -64500.359182   -64500.359134   -64500.410484  0.001160 -5.274656  0.007245
   scf:    9   -64500.359260   -64500.359201   -64500.410487  0.000806 -5.274719  0.005456
   scf:   10   -64500.359008   -64500.359106   -64500.410490  0.000646 -5.274776  0.002542
   scf:   11   -64500.359156   -64500.359131   -64500.410490  0.000184 -5.274809  0.001356
   scf:   12   -64500.359130   -64500.359131   -64500.410491  0.000180 -5.274829  0.001497
   scf:   13   -64500.359103   -64500.359117   -64500.410491  0.000152 -5.274837  0.000921
   scf:   14   -64500.359130   -64500.359123   -64500.410491  0.000034 -5.274842  0.000599

SCF Convergence by DM+H criterion
max |DM_out - DM_in|         :     0.0000339515
max |H_out - H_in|      (eV) :     0.0005993362
SCF cycle converged after 14 iterations

Using DM_out to compute the final energy and forces
No. of atoms with KB's overlaping orbs in proc 0. Max # of overlaps:      16     146

siesta: E_KS(eV) =           -64500.3591

siesta: Atomic forces (eV/Ang):
----------------------------------------
   Tot   -0.001547    0.000152   -0.000137
----------------------------------------
   Max    0.312915
   Res    0.129457    sqrt( Sum f_i^2 / 3N )
----------------------------------------
   Max    0.312915    constrained

Stress tensor Voigt[x,y,z,yz,xz,xy] (kbar):        0.04        0.00       -0.02       -0.02       -0.00       -0.00
(Free)E + p*V (eV/cell)   -64500.7035
Target enthalpy (eV/cell)   -64500.4105

cgvc: Finished line minimization    2.  Mean atomic displacement =    0.0788

                     ====================================
                        Begin CG opt. move =      7
                     ====================================

outcell: Unit cell vectors (Ang):
       40.000000    0.000000    0.000000
        0.000000   40.000000    0.000000
        0.000000    0.000000   40.000000

outcell: Cell vector modules (Ang)   :   40.000000   40.000000   40.000000
outcell: Cell angles (23,13,12) (deg):     90.0000     90.0000     90.0000
outcell: Cell volume (Ang**3)        :  64000.0000
<dSpData1D:S at geom step 7
  <sparsity:sparsity for geom step 7
    nrows_g=304 nrows=304 sparsity=.7375 nnzs=68158, refcount: 7>
  <dData1D:(new from dSpData1D) n=68158, refcount: 1>
refcount: 1>
new_DM -- step:     8
Re-using DM from previous geometries...
Number of DMs in history: 1
 DM extrapolation coefficients: 
1   1.00000
New DM after history re-use:
<dSpData2D:SpM extrapolated using coords
  <sparsity:sparsity for geom step 7
    nrows_g=304 nrows=304 sparsity=.7375 nnzs=68158, refcount: 9>
  <dData2D:(temp array for extrapolation) n=68158 m=1, refcount: 1>
refcount: 1>
No. of atoms with KB's overlaping orbs in proc 0. Max # of overlaps:      16     139

InitMesh: MESH = 432 x 432 x 432 = 80621568
InitMesh: Mesh cutoff (required, used) =   300.000   322.366 Ry
New grid distribution [1]: sub = 2

        iscf     Eharris(eV)        E_KS(eV)     FreeEng(eV)     dDmax    Ef(eV) dHmax(eV)
   scf:    1   -64500.364866   -64500.387550   -64500.415162  0.124476 -5.232509  0.439643
   scf:    2   -64495.841483   -64498.934681   -64498.984126  0.439820 -5.199878  3.678770
   scf:    3   -64500.479410   -64500.402933   -64500.440222  0.411157 -5.226293  0.157406
   scf:    4   -64500.399506   -64500.402599   -64500.443010  0.014774 -5.227759  0.045086
   scf:    5   -64500.399812   -64500.401374   -64500.443262  0.006440 -5.226976  0.031046
   scf:    6   -64500.402552   -64500.402028   -64500.443330  0.002527 -5.227004  0.015968
   scf:    7   -64500.401167   -64500.401625   -64500.443369  0.002377 -5.227058  0.010991
   scf:    8   -64500.401482   -64500.401557   -64500.443384  0.000635 -5.227033  0.005734
   scf:    9   -64500.401536   -64500.401547   -64500.443389  0.000268 -5.227047  0.002836
   scf:   10   -64500.401412   -64500.401480   -64500.443391  0.000295 -5.227062  0.001774
   scf:   11   -64500.401466   -64500.401473   -64500.443392  0.000159 -5.227075  0.001604
   scf:   12   -64500.401452   -64500.401463   -64500.443393  0.000093 -5.227090  0.000878

SCF Convergence by DM+H criterion
max |DM_out - DM_in|         :     0.0000929270
max |H_out - H_in|      (eV) :     0.0008781314
SCF cycle converged after 12 iterations

Using DM_out to compute the final energy and forces
No. of atoms with KB's overlaping orbs in proc 0. Max # of overlaps:      16     139

siesta: E_KS(eV) =           -64500.4015

siesta: Atomic forces (eV/Ang):
----------------------------------------
   Tot   -0.002964    0.002478   -0.000546
----------------------------------------
   Max    0.338245
   Res    0.126282    sqrt( Sum f_i^2 / 3N )
----------------------------------------
   Max    0.338245    constrained

Stress tensor Voigt[x,y,z,yz,xz,xy] (kbar):        0.00        0.05        0.02       -0.02        0.01        0.01
(Free)E + p*V (eV/cell)   -64501.3368
Target enthalpy (eV/cell)   -64500.4434

                     ====================================
                        Begin CG opt. move =      8
                     ====================================

outcell: Unit cell vectors (Ang):
       40.000000    0.000000    0.000000
        0.000000   40.000000    0.000000
        0.000000    0.000000   40.000000

outcell: Cell vector modules (Ang)   :   40.000000   40.000000   40.000000
outcell: Cell angles (23,13,12) (deg):     90.0000     90.0000     90.0000
outcell: Cell volume (Ang**3)        :  64000.0000
<dSpData1D:S at geom step 8
  <sparsity:sparsity for geom step 8
    nrows_g=304 nrows=304 sparsity=.7405 nnzs=68438, refcount: 7>
  <dData1D:(new from dSpData1D) n=68438, refcount: 1>
refcount: 1>
new_DM -- step:     9
Re-using DM from previous geometries...
Number of DMs in history: 1
 DM extrapolation coefficients: 
1   1.00000
New DM after history re-use:
<dSpData2D:SpM extrapolated using coords
  <sparsity:sparsity for geom step 8
    nrows_g=304 nrows=304 sparsity=.7405 nnzs=68438, refcount: 9>
  <dData2D:(temp array for extrapolation) n=68438 m=1, refcount: 1>
refcount: 1>
No. of atoms with KB's overlaping orbs in proc 0. Max # of overlaps:      16     139

InitMesh: MESH = 432 x 432 x 432 = 80621568
InitMesh: Mesh cutoff (required, used) =   300.000   322.366 Ry
New grid distribution [1]: sub = 2

        iscf     Eharris(eV)        E_KS(eV)     FreeEng(eV)     dDmax    Ef(eV) dHmax(eV)
   scf:    1   -64500.240837   -64500.396208   -64500.445917  0.039165 -5.238574  0.172589
   scf:    2   -64500.087994   -64500.312001   -64500.333000  0.113128 -5.250108  1.100390
   scf:    3   -64500.405963   -64500.405704   -64500.449887  0.089401 -5.241462  0.042296
   scf:    4   -64500.403618   -64500.404790   -64500.450071  0.004843 -5.241229  0.014180
   scf:    5   -64500.405326   -64500.405079   -64500.450091  0.001844 -5.241301  0.010317
   scf:    6   -64500.405378   -64500.405236   -64500.450099  0.001154 -5.241314  0.006193
   scf:    7   -64500.405040   -64500.405140   -64500.450102  0.000438 -5.241319  0.001950
   scf:    8   -64500.405263   -64500.405202   -64500.450103  0.000283 -5.241319  0.001360
   scf:    9   -64500.405207   -64500.405205   -64500.450104  0.000150 -5.241315  0.001252
   scf:   10   -64500.405196   -64500.405201   -64500.450104  0.000066 -5.241309  0.000600

SCF Convergence by DM+H criterion
max |DM_out - DM_in|         :     0.0000664686
max |H_out - H_in|      (eV) :     0.0005998705
SCF cycle converged after 10 iterations

Using DM_out to compute the final energy and forces
No. of atoms with KB's overlaping orbs in proc 0. Max # of overlaps:      16     139

siesta: E_KS(eV) =           -64500.4052

siesta: Atomic forces (eV/Ang):
----------------------------------------
   Tot   -0.003833    0.001306   -0.001229
----------------------------------------
   Max    0.223051
   Res    0.096683    sqrt( Sum f_i^2 / 3N )
----------------------------------------
   Max    0.223051    constrained

Stress tensor Voigt[x,y,z,yz,xz,xy] (kbar):        0.01        0.03        0.01       -0.02        0.01        0.01
(Free)E + p*V (eV/cell)   -64501.2414
Target enthalpy (eV/cell)   -64500.4501

cgvc: Finished line minimization    3.  Mean atomic displacement =    0.0559

                     ====================================
                        Begin CG opt. move =      9
                     ====================================

outcell: Unit cell vectors (Ang):
       40.000000    0.000000    0.000000
        0.000000   40.000000    0.000000
        0.000000    0.000000   40.000000

outcell: Cell vector modules (Ang)   :   40.000000   40.000000   40.000000
outcell: Cell angles (23,13,12) (deg):     90.0000     90.0000     90.0000
outcell: Cell volume (Ang**3)        :  64000.0000
<dSpData1D:S at geom step 9
  <sparsity:sparsity for geom step 9
    nrows_g=304 nrows=304 sparsity=.7432 nnzs=68688, refcount: 7>
  <dData1D:(new from dSpData1D) n=68688, refcount: 1>
refcount: 1>
new_DM -- step:    10
Re-using DM from previous geometries...
Number of DMs in history: 1
 DM extrapolation coefficients: 
1   1.00000
New DM after history re-use:
<dSpData2D:SpM extrapolated using coords
  <sparsity:sparsity for geom step 9
    nrows_g=304 nrows=304 sparsity=.7432 nnzs=68688, refcount: 9>
  <dData2D:(temp array for extrapolation) n=68688 m=1, refcount: 1>
refcount: 1>
No. of atoms with KB's overlaping orbs in proc 0. Max # of overlaps:      16     142

InitMesh: MESH = 432 x 432 x 432 = 80621568
InitMesh: Mesh cutoff (required, used) =   300.000   322.366 Ry
New grid distribution [1]: sub = 2

        iscf     Eharris(eV)        E_KS(eV)     FreeEng(eV)     dDmax    Ef(eV) dHmax(eV)
   scf:    1   -64499.665580   -64500.415213   -64500.443738  0.114766 -5.227508  0.519042
   scf:    2   -64495.099480   -64498.698644   -64498.758730  0.367028 -5.237776  4.289564
   scf:    3   -64500.537522   -64500.432716   -64500.465197  0.349213 -5.231463  0.124157
   scf:    4   -64500.428276   -64500.431677   -64500.467453  0.014915 -5.230761  0.037349
   scf:    5   -64500.430762   -64500.431342   -64500.467599  0.004173 -5.231359  0.025872
   scf:    6   -64500.431778   -64500.431582   -64500.467649  0.001328 -5.231497  0.005912
   scf:    7   -64500.431001   -64500.431301   -64500.467660  0.001418 -5.231638  0.009058
   scf:    8   -64500.431324   -64500.431314   -64500.467667  0.000571 -5.231690  0.003096
   scf:    9   -64500.431239   -64500.431277   -64500.467670  0.000213 -5.231753  0.001796
   scf:   10   -64500.431203   -64500.431241   -64500.467671  0.000237 -5.231783  0.001429
   scf:   11   -64500.431219   -64500.431230   -64500.467671  0.000143 -5.231784  0.001042
   scf:   12   -64500.431219   -64500.431225   -64500.467672  0.000061 -5.231787  0.000635

SCF Convergence by DM+H criterion
max |DM_out - DM_in|         :     0.0000613621
max |H_out - H_in|      (eV) :     0.0006354047
SCF cycle converged after 12 iterations

Using DM_out to compute the final energy and forces
No. of atoms with KB's overlaping orbs in proc 0. Max # of overlaps:      16     142

siesta: E_KS(eV) =           -64500.4312

siesta: Atomic forces (eV/Ang):
----------------------------------------
   Tot   -0.001469   -0.000296   -0.000640
----------------------------------------
   Max    0.303629
   Res    0.110860    sqrt( Sum f_i^2 / 3N )
----------------------------------------
   Max    0.303629    constrained

Stress tensor Voigt[x,y,z,yz,xz,xy] (kbar):        0.01        0.00       -0.02        0.00        0.00        0.00
(Free)E + p*V (eV/cell)   -64500.3054
Target enthalpy (eV/cell)   -64500.4677

                     ====================================
                        Begin CG opt. move =     10
                     ====================================

outcell: Unit cell vectors (Ang):
       40.000000    0.000000    0.000000
        0.000000   40.000000    0.000000
        0.000000    0.000000   40.000000

outcell: Cell vector modules (Ang)   :   40.000000   40.000000   40.000000
outcell: Cell angles (23,13,12) (deg):     90.0000     90.0000     90.0000
outcell: Cell volume (Ang**3)        :  64000.0000
<dSpData1D:S at geom step 10
  <sparsity:sparsity for geom step 10
    nrows_g=304 nrows=304 sparsity=.7425 nnzs=68616, refcount: 7>
  <dData1D:(new from dSpData1D) n=68616, refcount: 1>
refcount: 1>
new_DM -- step:    11
Re-using DM from previous geometries...
Number of DMs in history: 1
 DM extrapolation coefficients: 
1   1.00000
New DM after history re-use:
<dSpData2D:SpM extrapolated using coords
  <sparsity:sparsity for geom step 10
    nrows_g=304 nrows=304 sparsity=.7425 nnzs=68616, refcount: 9>
  <dData2D:(temp array for extrapolation) n=68616 m=1, refcount: 1>
refcount: 1>
No. of atoms with KB's overlaping orbs in proc 0. Max # of overlaps:      16     142

InitMesh: MESH = 432 x 432 x 432 = 80621568
InitMesh: Mesh cutoff (required, used) =   300.000   322.366 Ry
New grid distribution [1]: sub = 2

        iscf     Eharris(eV)        E_KS(eV)     FreeEng(eV)     dDmax    Ef(eV) dHmax(eV)
   scf:    1   -64500.585153   -64500.428654   -64500.471273  0.039861 -5.235627  0.201222
   scf:    2   -64500.048039   -64500.316694   -64500.339928  0.092700 -5.232331  1.196701
   scf:    3   -64500.439773   -64500.435422   -64500.474761  0.077583 -5.235479  0.029451
   scf:    4   -64500.434559   -64500.435026   -64500.474816  0.002041 -5.235356  0.007601
   scf:    5   -64500.435394   -64500.435218   -64500.474827  0.001091 -5.235298  0.005027
   scf:    6   -64500.435365   -64500.435294   -64500.474831  0.000577 -5.235230  0.003627
   scf:    7   -64500.435219   -64500.435257   -64500.474832  0.000174 -5.235180  0.001097
   scf:    8   -64500.435337   -64500.435297   -64500.474833  0.000153 -5.235144  0.001005
   scf:    9   -64500.435298   -64500.435298   -64500.474833  0.000080 -5.235128  0.000632

SCF Convergence by DM+H criterion
max |DM_out - DM_in|         :     0.0000798599
max |H_out - H_in|      (eV) :     0.0006319424
SCF cycle converged after 9 iterations

Using DM_out to compute the final energy and forces
No. of atoms with KB's overlaping orbs in proc 0. Max # of overlaps:      16     142

siesta: E_KS(eV) =           -64500.4353

siesta: Atomic forces (eV/Ang):
----------------------------------------
   Tot   -0.001819    0.000750   -0.000849
----------------------------------------
   Max    0.158053
   Res    0.061359    sqrt( Sum f_i^2 / 3N )
----------------------------------------
   Max    0.158053    constrained

Stress tensor Voigt[x,y,z,yz,xz,xy] (kbar):        0.01        0.02       -0.01       -0.01        0.00        0.00
(Free)E + p*V (eV/cell)   -64500.6999
Target enthalpy (eV/cell)   -64500.4748

cgvc: Finished line minimization    4.  Mean atomic displacement =    0.0361

                     ====================================
                        Begin CG opt. move =     11
                     ====================================

outcell: Unit cell vectors (Ang):
       40.000000    0.000000    0.000000
        0.000000   40.000000    0.000000
        0.000000    0.000000   40.000000

outcell: Cell vector modules (Ang)   :   40.000000   40.000000   40.000000
outcell: Cell angles (23,13,12) (deg):     90.0000     90.0000     90.0000
outcell: Cell volume (Ang**3)        :  64000.0000
<dSpData1D:S at geom step 11
  <sparsity:sparsity for geom step 11
    nrows_g=304 nrows=304 sparsity=.7431 nnzs=68674, refcount: 7>
  <dData1D:(new from dSpData1D) n=68674, refcount: 1>
refcount: 1>
new_DM -- step:    12
Re-using DM from previous geometries...
Number of DMs in history: 1
 DM extrapolation coefficients: 
1   1.00000
New DM after history re-use:
<dSpData2D:SpM extrapolated using coords
  <sparsity:sparsity for geom step 11
    nrows_g=304 nrows=304 sparsity=.7431 nnzs=68674, refcount: 9>
  <dData2D:(temp array for extrapolation) n=68674 m=1, refcount: 1>
refcount: 1>
No. of atoms with KB's overlaping orbs in proc 0. Max # of overlaps:      16     140

InitMesh: MESH = 432 x 432 x 432 = 80621568
InitMesh: Mesh cutoff (required, used) =   300.000   322.366 Ry
New grid distribution [1]: sub = 2

        iscf     Eharris(eV)        E_KS(eV)     FreeEng(eV)     dDmax    Ef(eV) dHmax(eV)
   scf:    1   -64500.079440   -64500.448763   -64500.483175  0.050642 -5.239044  0.227309
   scf:    2   -64499.956143   -64500.293149   -64500.336727  0.117804 -5.192109  1.116830
   scf:    3   -64500.477446   -64500.452842   -64500.489229  0.102019 -5.227855  0.025744
   scf:    4   -64500.451480   -64500.452253   -64500.489389  0.003492 -5.227685  0.014247
   scf:    5   -64500.452223   -64500.452244   -64500.489408  0.000595 -5.227607  0.005815
   scf:    6   -64500.452325   -64500.452286   -64500.489413  0.000356 -5.227643  0.002651
   scf:    7   -64500.452124   -64500.452206   -64500.489415  0.000246 -5.227683  0.002376
   scf:    8   -64500.452197   -64500.452201   -64500.489416  0.000121 -5.227719  0.001316
   scf:    9   -64500.452153   -64500.452177   -64500.489416  0.000076 -5.227768  0.001218
   scf:   10   -64500.452191   -64500.452184   -64500.489416  0.000105 -5.227790  0.000791
   scf:   11   -64500.452162   -64500.452173   -64500.489416  0.000055 -5.227805  0.000562

SCF Convergence by DM+H criterion
max |DM_out - DM_in|         :     0.0000552046
max |H_out - H_in|      (eV) :     0.0005618064
SCF cycle converged after 11 iterations

Using DM_out to compute the final energy and forces
No. of atoms with KB's overlaping orbs in proc 0. Max # of overlaps:      16     140

siesta: E_KS(eV) =           -64500.4522

siesta: Atomic forces (eV/Ang):
----------------------------------------
   Tot   -0.000990    0.000676   -0.000545
----------------------------------------
   Max    0.150371
   Res    0.061411    sqrt( Sum f_i^2 / 3N )
----------------------------------------
   Max    0.150371    constrained

Stress tensor Voigt[x,y,z,yz,xz,xy] (kbar):       -0.01       -0.00       -0.04       -0.00        0.00        0.01
(Free)E + p*V (eV/cell)   -64499.7902
Target enthalpy (eV/cell)   -64500.4894

                     ====================================
                        Begin CG opt. move =     12
                     ====================================

outcell: Unit cell vectors (Ang):
       40.000000    0.000000    0.000000
        0.000000   40.000000    0.000000
        0.000000    0.000000   40.000000

outcell: Cell vector modules (Ang)   :   40.000000   40.000000   40.000000
outcell: Cell angles (23,13,12) (deg):     90.0000     90.0000     90.0000
outcell: Cell volume (Ang**3)        :  64000.0000
<dSpData1D:S at geom step 12
  <sparsity:sparsity for geom step 12
    nrows_g=304 nrows=304 sparsity=.7435 nnzs=68712, refcount: 7>
  <dData1D:(new from dSpData1D) n=68712, refcount: 1>
refcount: 1>
new_DM -- step:    13
Re-using DM from previous geometries...
Number of DMs in history: 1
 DM extrapolation coefficients: 
1   1.00000
New DM after history re-use:
<dSpData2D:SpM extrapolated using coords
  <sparsity:sparsity for geom step 12
    nrows_g=304 nrows=304 sparsity=.7435 nnzs=68712, refcount: 9>
  <dData2D:(temp array for extrapolation) n=68712 m=1, refcount: 1>
refcount: 1>
No. of atoms with KB's overlaping orbs in proc 0. Max # of overlaps:      16     137

InitMesh: MESH = 432 x 432 x 432 = 80621568
InitMesh: Mesh cutoff (required, used) =   300.000   322.366 Ry
New grid distribution [1]: sub = 2

        iscf     Eharris(eV)        E_KS(eV)     FreeEng(eV)     dDmax    Ef(eV) dHmax(eV)
   scf:    1   -64499.683681   -64500.416413   -64500.445301  0.072035 -5.233573  0.333340
   scf:    2   -64499.462518   -64500.119209   -64500.159454  0.151641 -5.153504  1.543296
   scf:    3   -64500.468203   -64500.426841   -64500.458719  0.131981 -5.214851  0.049514
   scf:    4   -64500.425173   -64500.426354   -64500.459162  0.006683 -5.214406  0.034868
   scf:    5   -64500.425720   -64500.426096   -64500.459250  0.002659 -5.214285  0.016869
   scf:    6   -64500.426440   -64500.426278   -64500.459273  0.000858 -5.214354  0.005104
   scf:    7   -64500.426022   -64500.426153   -64500.459280  0.000505 -5.214444  0.004269
   scf:    8   -64500.426072   -64500.426113   -64500.459282  0.000253 -5.214503  0.003433
   scf:    9   -64500.426131   -64500.426122   -64500.459283  0.000211 -5.214557  0.001877
   scf:   10   -64500.426057   -64500.426090   -64500.459284  0.000105 -5.214602  0.001498
   scf:   11   -64500.426084   -64500.426087   -64500.459284  0.000072 -5.214641  0.000884

SCF Convergence by DM+H criterion
max |DM_out - DM_in|         :     0.0000724714
max |H_out - H_in|      (eV) :     0.0008843101
SCF cycle converged after 11 iterations

Using DM_out to compute the final energy and forces
No. of atoms with KB's overlaping orbs in proc 0. Max # of overlaps:      16     137

siesta: E_KS(eV) =           -64500.4261

siesta: Atomic forces (eV/Ang):
----------------------------------------
   Tot   -0.000460    0.000397   -0.001663
----------------------------------------
   Max    0.508383
   Res    0.186682    sqrt( Sum f_i^2 / 3N )
----------------------------------------
   Max    0.508383    constrained

Stress tensor Voigt[x,y,z,yz,xz,xy] (kbar):       -0.05       -0.05       -0.09        0.01        0.00        0.01
(Free)E + p*V (eV/cell)   -64498.0408
Target enthalpy (eV/cell)   -64500.4593

                     ====================================
                        Begin CG opt. move =     13
                     ====================================

outcell: Unit cell vectors (Ang):
       40.000000    0.000000    0.000000
        0.000000   40.000000    0.000000
        0.000000    0.000000   40.000000

outcell: Cell vector modules (Ang)   :   40.000000   40.000000   40.000000
outcell: Cell angles (23,13,12) (deg):     90.0000     90.0000     90.0000
outcell: Cell volume (Ang**3)        :  64000.0000
<dSpData1D:S at geom step 13
  <sparsity:sparsity for geom step 13
    nrows_g=304 nrows=304 sparsity=.7420 nnzs=68574, refcount: 7>
  <dData1D:(new from dSpData1D) n=68574, refcount: 1>
refcount: 1>
new_DM -- step:    14
Re-using DM from previous geometries...
Number of DMs in history: 1
 DM extrapolation coefficients: 
1   1.00000
New DM after history re-use:
<dSpData2D:SpM extrapolated using coords
  <sparsity:sparsity for geom step 13
    nrows_g=304 nrows=304 sparsity=.7420 nnzs=68574, refcount: 9>
  <dData2D:(temp array for extrapolation) n=68574 m=1, refcount: 1>
refcount: 1>
No. of atoms with KB's overlaping orbs in proc 0. Max # of overlaps:      16     140

InitMesh: MESH = 432 x 432 x 432 = 80621568
InitMesh: Mesh cutoff (required, used) =   300.000   322.366 Ry
New grid distribution [1]: sub = 2

        iscf     Eharris(eV)        E_KS(eV)     FreeEng(eV)     dDmax    Ef(eV) dHmax(eV)
   scf:    1   -64500.802193   -64500.434839   -64500.475102  0.073575 -5.208589  0.332035
   scf:    2   -64499.646251   -64500.203751   -64500.223511  0.155777 -5.283504  1.343053
   scf:    3   -64500.479718   -64500.452773   -64500.489143  0.129968 -5.227496  0.050269
   scf:    4   -64500.448481   -64500.451130   -64500.489148  0.009179 -5.227568  0.055830
   scf:    5   -64500.453093   -64500.452272   -64500.489481  0.004964 -5.227617  0.008709
   scf:    6   -64500.452516   -64500.452397   -64500.489496  0.000593 -5.227671  0.005020
   scf:    7   -64500.452359   -64500.452378   -64500.489500  0.000206 -5.227591  0.002238
   scf:    8   -64500.452475   -64500.452427   -64500.489502  0.000159 -5.227519  0.002273
   scf:    9   -64500.452412   -64500.452419   -64500.489503  0.000116 -5.227463  0.001323
   scf:   10   -64500.452459   -64500.452439   -64500.489503  0.000069 -5.227416  0.001345
   scf:   11   -64500.452428   -64500.452434   -64500.489504  0.000077 -5.227383  0.000752

SCF Convergence by DM+H criterion
max |DM_out - DM_in|         :     0.0000772653
max |H_out - H_in|      (eV) :     0.0007516423
SCF cycle converged after 11 iterations

Using DM_out to compute the final energy and forces
No. of atoms with KB's overlaping orbs in proc 0. Max # of overlaps:      16     140

siesta: E_KS(eV) =           -64500.4524

siesta: Atomic forces (eV/Ang):
----------------------------------------
   Tot   -0.001017    0.000639   -0.000480
----------------------------------------
   Max    0.164618
   Res    0.066187    sqrt( Sum f_i^2 / 3N )
----------------------------------------
   Max    0.164618    constrained

Stress tensor Voigt[x,y,z,yz,xz,xy] (kbar):       -0.01       -0.01       -0.04       -0.00        0.00        0.01
(Free)E + p*V (eV/cell)   -64499.7082
Target enthalpy (eV/cell)   -64500.4895

cgvc: Finished line minimization    5.  Mean atomic displacement =    0.0391

                     ====================================
                        Begin CG opt. move =     14
                     ====================================

outcell: Unit cell vectors (Ang):
       40.000000    0.000000    0.000000
        0.000000   40.000000    0.000000
        0.000000    0.000000   40.000000

outcell: Cell vector modules (Ang)   :   40.000000   40.000000   40.000000
outcell: Cell angles (23,13,12) (deg):     90.0000     90.0000     90.0000
outcell: Cell volume (Ang**3)        :  64000.0000
<dSpData1D:S at geom step 14
  <sparsity:sparsity for geom step 14
    nrows_g=304 nrows=304 sparsity=.7423 nnzs=68602, refcount: 7>
  <dData1D:(new from dSpData1D) n=68602, refcount: 1>
refcount: 1>
new_DM -- step:    15
Re-using DM from previous geometries...
Number of DMs in history: 1
 DM extrapolation coefficients: 
1   1.00000
New DM after history re-use:
<dSpData2D:SpM extrapolated using coords
  <sparsity:sparsity for geom step 14
    nrows_g=304 nrows=304 sparsity=.7423 nnzs=68602, refcount: 9>
  <dData2D:(temp array for extrapolation) n=68602 m=1, refcount: 1>
refcount: 1>
No. of atoms with KB's overlaping orbs in proc 0. Max # of overlaps:      16     140

InitMesh: MESH = 432 x 432 x 432 = 80621568
InitMesh: Mesh cutoff (required, used) =   300.000   322.366 Ry
New grid distribution [1]: sub = 2

        iscf     Eharris(eV)        E_KS(eV)     FreeEng(eV)     dDmax    Ef(eV) dHmax(eV)
   scf:    1   -64500.369962   -64500.477766   -64500.505136  0.050647 -5.228950  0.195801
   scf:    2   -64500.088670   -64500.347453   -64500.399415  0.081248 -5.211935  1.160680
   scf:    3   -64500.511279   -64500.477933   -64500.508925  0.071779 -5.225185  0.032250
   scf:    4   -64500.475910   -64500.477049   -64500.509023  0.004290 -5.225259  0.028127
   scf:    5   -64500.477045   -64500.477086   -64500.509088  0.002419 -5.225148  0.007640
   scf:    6   -64500.477082   -64500.477087   -64500.509099  0.000624 -5.225126  0.002944
   scf:    7   -64500.476864   -64500.476976   -64500.509102  0.000293 -5.225109  0.002865
   scf:    8   -64500.476969   -64500.476973   -64500.509103  0.000091 -5.225094  0.001539
