Executable      : siesta
Version         : 5.2.2
Architecture    : x86_64
Compiler version: GNU-13.3.0
Compiler flags  : -march=nocona -mtune=haswell -ftree-vectorize -fPIC -fstack-protector-strong -fno-plt -O2 -ffunction-sections -pipe -isystem <prefix>/include -I<prefix>/_build_env/include -fdebug-prefix-map=<prefix>/work=/usr/local/src/conda/siesta-5.2.2 -fdebug-prefix-map=<prefix>=/usr/local/src/conda-prefix -I<prefix>/lib -fallow-argument-mismatch -O3
Parallelisations: none
NetCDF support
NetCDF-4 support
Lua support
DFT-D3 support

Runtime information:
* Directory : /home/jordifaraudo/Documents/kk/prova_or
* Running in serial mode.
>> Start of run:  30-JUN-2025  17:58:26

                           *********************** 
                           *  WELCOME TO SIESTA  * 
                           *********************** 

 NOTE: Siesta V5 introduces some new defaults for basis-set generation
 NOTE: which might lead to slightly different numerical results.
 NOTE: Please see the manual for full details and compatibility measures.


reinit: Reading from file optimization.fdf

reinit: -----------------------------------------------------------------------
reinit: System Name: 
reinit: -----------------------------------------------------------------------
reinit: System Label: SurRel
reinit: -----------------------------------------------------------------------

initatom: Reading input for the pseudopotentials and atomic orbitals ----------
Species number:   1 Atomic number:   79 Label: Au

Ground state valence configuration (from tables):   6s01  6p00  5d10  5f00

---- Processing specs for species: Au
Reading pseudopotential information in PSML from:
  Au.psml
PSML file version: 1.1
Using libxc ids:  101 130
GGA--PBE XC_GGA_X_PBE--XC_GGA_C_PBE pb
PSML uuid: fa497b30-be45-11e7-41fb-494093d7a025
Semicore shell(s) with  8 electrons included in the valence for Au

---- Pseudopotential check for Au

Pseudized shells:
5s( 2.00) rc: 1.46
5p( 6.00) rc: 1.56
5d(10.00) rc: 1.56
5f( 0.00) rc: 1.60
Valence configuration for ps generation: 5s:5p:5d:6s: Total charge:  19.000000
Semicore shell(s): 5s 5p
Fallback to non-perturbative polarization scheme for Au
Please see the manual if this is not desired in principle
For Au, standard SIESTA heuristics set lmxkb to 3
 (one more than the basis l, including polarization orbitals).
Use PS.lmax or PS.KBprojectors blocks to override.

<basis_specs>
===============================================================================
Au                   Z=  79    Mass=  196.97        Charge= 0.17977+309
Lmxo=2 Lmxkb= 3    BasisType=split      Semic=T
L=0  Nsemic=1  Cnfigmx=6
          i=1  nzeta=1  polorb=0  (5s)  (semicore shell)
            splnorm:   0.15000    
               vcte:    40.000    
               rinn:  -0.90000    
               qcoe:    0.0000    
               qyuk:    0.0000    
               qwid:   0.10000E-01
                rcs:    0.0000    
            lambdas:    1.0000    
          i=2  nzeta=2  polorb=0  (6s)  (to be polarized non-perturbatively)
            splnorm:   0.15000    
               vcte:    40.000    
               rinn:  -0.90000    
               qcoe:    0.0000    
               qyuk:    0.0000    
               qwid:   0.10000E-01
                rcs:    0.0000      0.0000    
            lambdas:    1.0000      1.0000    
L=1  Nsemic=1  Cnfigmx=6
          i=1  nzeta=1  polorb=0  (5p)  (semicore shell)
            splnorm:   0.15000    
               vcte:    40.000    
               rinn:  -0.90000    
               qcoe:    0.0000    
               qyuk:    0.0000    
               qwid:   0.10000E-01
                rcs:    0.0000    
            lambdas:    1.0000    
          i=2  nzeta=1  polorb=0  (6p)  (non-perturbative polarization shell)
            splnorm:   0.15000    
               vcte:    40.000    
               rinn:  -0.90000    
               qcoe:    0.0000    
               qyuk:    0.0000    
               qwid:   0.10000E-01
                rcs:    0.0000    
            lambdas:    1.0000    
L=2  Nsemic=0  Cnfigmx=5
          i=1  nzeta=2  polorb=0  (5d)
            splnorm:   0.15000    
               vcte:    40.000    
               rinn:  -0.90000    
               qcoe:    0.0000    
               qyuk:    0.0000    
               qwid:   0.10000E-01
                rcs:    0.0000      0.0000    
            lambdas:    1.0000      1.0000    
-------------------------------------------------------------------------------
L=0  Nkbl=2  erefs: 0.17977+309 0.17977+309
L=1  Nkbl=2  erefs: 0.17977+309 0.17977+309
L=2  Nkbl=1  erefs: 0.17977+309
L=3  Nkbl=1  erefs: 0.17977+309
===============================================================================
</basis_specs>

Using PAO.SplitTailNorm
atom: Called for Au                    (Z =  79)
Maximum radius (at nrval) set to   50.00000 8518

read_vps: Pseudopotential generation method:
read_vps: ONCVPSP-3.Hamann's oncvpsp                        
Valence charge in pseudo generation:   19.00000

read_vps: Pseudopotential includes a core correction:
read_vps: Pseudo-core for xc-correction

xc_check: Exchange-correlation functional:
xc_check: GGA Perdew, Burke & Ernzerhof 1996
Got Vlocal (oncv-fit) from psml data
Choosing vlocal chloc cutoff:  5.037181
qtot up to nchloc:   18.99999407
atom: Maximum radius for chlocal:    5.03718
atom: Maximum radius for r*vlocal+2*Zval:    5.03718
Reading KB projs from Au psml data
Using scalar-relativistic projectors in PSML file

PSML: Kleinman-Bylander projectors: 
   l= 0   rc=  1.474132   Ekb= 18.815768
   l= 0   rc=  1.474132   Ekb= -0.390506
   l= 1   rc=  1.583336   Ekb=  4.781134
   l= 1   rc=  1.583336   Ekb= -3.699696
   l= 2   rc=  1.583336   Ekb=  2.968821
   l= 2   rc=  1.583336   Ekb=  0.574456
   l= 3   rc=  1.622038   Ekb=  2.312314

PSML: Total number of  Kleinman-Bylander projectors:  25
atom: -------------------------------------------------------------------------

atom: SANKEY-TYPE ORBITALS:
atom: Selected multiple-zeta basis: split     

SPLIT: Orbitals with angular momentum L= 0

SPLIT: Basis orbitals for state 5s

SPLIT: PAO cut-off radius determined from an
SPLIT: energy shift=  0.000735 Ry
Split based on tail norm

   izeta = 1
                 lambda =    1.000000
                     rc =    2.925359
                 energy =   -7.964134
                kinetic =    2.893592
    potential(screened) =  -10.857725
       potential(ionic) =  -37.457701

SPLIT: Basis orbitals for state 6s

SPLIT: PAO cut-off radius determined from an
SPLIT: energy shift=  0.000735 Ry
Split based on tail norm

   izeta = 1
                 lambda =    1.000000
                     rc =    8.033223
                 energy =   -0.536485
                kinetic =    1.477051
    potential(screened) =   -2.013535
       potential(ionic) =  -17.521292

   izeta = 2
                 rmatch =    4.927355
              splitnorm =    0.150000
                 energy =   -0.413505
                kinetic =    2.478661
    potential(screened) =   -2.892166
       potential(ionic) =  -20.911581

SPLIT: Orbitals with angular momentum L= 1

SPLIT: Basis orbitals for state 5p

SPLIT: PAO cut-off radius determined from an
SPLIT: energy shift=  0.000735 Ry
Split based on tail norm

   izeta = 1
                 lambda =    1.000000
                     rc =    3.518348
                 energy =   -4.393065
                kinetic =    4.954761
    potential(screened) =   -9.347826
       potential(ionic) =  -34.716971

SPLIT: Basis orbitals for state 6p
SPLIT: Non-perturbative polarization orbs for state 6s
SPLIT: rc(1st zeta) (re)set to: 8.0332 (expansion factor: 1.0000)
Split based on tail norm

   izeta = 1
                 lambda =    1.000000
                     rc =    8.033223
                 energy =   -0.028561
                kinetic =    0.837945
    potential(screened) =   -0.866506
       potential(ionic) =  -11.902774

SPLIT: Orbitals with angular momentum L= 2

SPLIT: Basis orbitals for state 5d

SPLIT: PAO cut-off radius determined from an
SPLIT: energy shift=  0.000735 Ry
Split based on tail norm

   izeta = 1
                 lambda =    1.000000
                     rc =    6.393405
                 energy =   -0.504592
                kinetic =    4.935315
    potential(screened) =   -5.439906
       potential(ionic) =  -26.571989

   izeta = 2
                 rmatch =    3.462344
              splitnorm =    0.150000
                 energy =   -0.397189
                kinetic =    6.101362
    potential(screened) =   -6.498551
       potential(ionic) =  -29.253309
atom: Total number of Sankey-type orbitals: 19

atm_pop: Valence configuration (for local Pseudopot. screening):
 5s( 2.00) 6s( 1.00)                                                  
 5p( 6.00) 6p( 0.00)                                                  
 5d(10.00)                                                            
Vna: chval, zval:   19.00000  19.00000

Vna:  Cut-off radius for the neutral-atom potential:   8.033223
comcore: Pseudo-core radius Rcore=  2.583037

atom: _________________________________________________________________________

prinput: Basis input 

PAO.BasisType split     

%block ChemicalSpeciesLabel
    1   79 Au                      # Species index, atomic number, species label
%endblock ChemicalSpeciesLabel

%block PAO.Basis                 # Define Basis set
# WARNING: This information might be incomplete!
Au                    5                    # Species label, number of l-shells
 n=5   0   1                         # n, l, Nzeta 
   2.925   
   1.000   
 n=6   0   2                         # n, l, Nzeta 
   8.033      4.927   
   1.000      1.000   
 n=5   1   1                         # n, l, Nzeta 
   3.518   
   1.000   
 n=6   1   1                         # n, l, Nzeta 
   8.033   
   1.000   
 n=5   2   2                         # n, l, Nzeta 
   6.393      3.462   
   1.000      1.000   
%endblock PAO.Basis

prinput: ----------------------------------------------------------------------

Dumping basis to NetCDF file Au.ion.nc
coor:   Atomic-coordinates input format  =     Cartesian coordinates
coor:                                          (in Angstroms)

siesta: Atomic coordinates (Bohr) and species
siesta:      7.91147   7.21633   7.69874  1        1
siesta:     10.94329  11.12368   7.90883  1        2
siesta:     10.97755   7.66288  11.60182  1        3
siesta:      6.70530  10.58660  11.06782  1        4
siesta:      8.18915  15.14837   9.32920  1        5
siesta:     12.04421  18.88662   9.85413  1        6
siesta:     12.76948  14.17053  11.24737  1        7
siesta:      8.50781  18.51412  13.14048  1        8
siesta:      8.24901   8.84515  15.69941  1        9
siesta:     12.82642  10.88053  14.83569  1       10
siesta:     12.07512   9.42576  19.54451  1       11
siesta:      8.45649  12.60538  19.12427  1       12
siesta:      7.04569  13.98522  14.54800  1       13
siesta:     13.24730  17.67285  14.83006  1       14
siesta:     13.28451  14.29349  18.46493  1       15
siesta:      9.07282  17.34321  17.93630  1       16

siesta: System type = molecule  

initatomlists: Number of atoms, orbitals, and projectors:     16   304   400

coxmol: Writing XMOL coordinates into file SurRel.xyz                                                                                                                                                                                                                          

siesta: ******************** Simulation parameters ****************************
siesta:
siesta: The following are some of the parameters of the simulation.
siesta: A complete list of the parameters used, including default values,
siesta: can be found in file out.fdf
siesta:
redata: Spin configuration                          = none
redata: Number of spin components                   = 1
redata: Time-Reversal Symmetry                      = T
redata: Spin spiral                                 = F
redata: Long output                                 =   F
redata: Number of Atomic Species                    =        1
redata: Charge density info will appear in .RHO file
redata: Write Mulliken charges (when)               = none
redata: Write Mulliken Pop.                         = NO
redata: Write Hirshfeld charges (when)              = none
redata: Write Voronoi charges (when)                = none
redata: Write spin charge (when)                    = none
redata: Matel table size (NRTAB)                    =     1024
redata: Mesh Cutoff                                 =   300.0000 Ry
redata: Net charge of the system                    =     0.0000 |e|
redata: Min. number of SCF Iter                     =        0
redata: Max. number of SCF Iter                     =     1000
redata: SCF convergence failure will abort job
redata: SCF mix quantity                            = Hamiltonian
redata: Mix DM or H after convergence               =   F
redata: Recompute H after scf cycle                 =   F
redata: Mix DM in first SCF step                    =   T
redata: Write Pulay info on disk                    =   F
redata: New DM Occupancy tolerance                  = 0.000000000001
redata: No kicks to SCF
redata: DM Mixing Weight for Kicks                  =     0.5000
redata: Require Harris convergence for SCF          =   F
redata: Harris energy tolerance for SCF             =     0.000100 eV
redata: Require DM convergence for SCF              =   T
redata: DM tolerance for SCF                        =     0.000100
redata: Require EDM convergence for SCF             =   F
redata: EDM tolerance for SCF                       =     0.001000 eV
redata: Require H convergence for SCF               =   T
redata: Hamiltonian tolerance for SCF               =     0.001000 eV
redata: Require (free) Energy convergence for SCF   =   F
redata: (free) Energy tolerance for SCF             =     0.000100 eV
redata: Using DFT-D3 dispersion                     =   F
redata: Using Saved Data (generic)                  =   F
redata: Use continuation files for DM               =   T
redata: Neglect nonoverlap interactions             =   F
redata: Method of Calculation                       = Diagonalization
redata: Electronic Temperature                      =   300.0000 K
redata: Fix the spin of the system                  =   F
redata: Max. number of TDED Iter                    =        1
redata: Number of TDED substeps                     =        3
redata: Dynamics option                             = CG coord. optimization
redata: Variable cell                               =   F
redata: Use continuation files for CG               =   F
redata: Max atomic displ per move                   =     0.1058 Ang
redata: Maximum number of optimization moves        =       15
redata: Force tolerance                             =     0.0200 eV/Ang
mix.SCF: Pulay mixing                            = Pulay
mix.SCF:    Variant                              = stable
mix.SCF:    History steps                        = 2
mix.SCF:    Linear mixing weight                 =     0.250000
mix.SCF:    Mixing weight                        =     0.250000
mix.SCF:    SVD condition                        = 0.1000E-07
redata: Save all siesta data in one NC              =   F
redata: ***********************************************************************

%block SCF.Mixers
  Pulay
%endblock SCF.Mixers

%block SCF.Mixer.Pulay
  # Mixing method
  method pulay
  variant stable

  # Mixing options
  weight 0.2500
  weight.linear 0.2500
  history 2
%endblock SCF.Mixer.Pulay

DM_history_depth set to one: no extrapolation allowed by default for geometry relaxation
Size of DM history Fstack: 1
Total number of electrons:   304.000000
Total ionic charge:   304.000000

siesta: k-grid: Number of k-points = 1
siesta: k-point is Gamma-only

diag: Algorithm                                     = D&C
diag: Used triangular part                          = Lower
diag: Absolute tolerance                            =  0.100E-15
diag: Orthogonalization factor                      =  0.100E-05
diag: Memory factor                                 =  1.0000


ts: **************************************************************
ts: Save H and S matrices                           =    F
ts: Save DM and EDM matrices                        =    F
ts: Only save the overlap matrix S                  =    F
ts: **************************************************************

************************ Begin: TS CHECKS AND WARNINGS ************************
************************ End: TS CHECKS AND WARNINGS **************************


                     ====================================
                        Begin CG opt. move =      0
                     ====================================

outcell: Unit cell vectors (Ang):
       40.000000    0.000000    0.000000
        0.000000   40.000000    0.000000
        0.000000    0.000000   40.000000

outcell: Cell vector modules (Ang)   :   40.000000   40.000000   40.000000
outcell: Cell angles (23,13,12) (deg):     90.0000     90.0000     90.0000
outcell: Cell volume (Ang**3)        :  64000.0000
<dSpData1D:S at geom step 0
  <sparsity:sparsity for geom step 0
    nrows_g=304 nrows=304 sparsity=.8401 nnzs=77640, refcount: 7>
  <dData1D:(new from dSpData1D) n=77640, refcount: 1>
refcount: 1>
new_DM -- step:     1
Initializing Density Matrix...

Attempting to read DM from file... Failed...
DM filled with atomic data:
<dSpData2D:DM initialized from atoms
  <sparsity:sparsity for geom step 0
    nrows_g=304 nrows=304 sparsity=.8401 nnzs=77640, refcount: 8>
  <dData2D:DM n=77640 m=1, refcount: 1>
refcount: 1>
No. of atoms with KB's overlaping orbs in proc 0. Max # of overlaps:      16     175

InitMesh: MESH = 432 x 432 x 432 = 80621568
InitMesh: Mesh cutoff (required, used) =   300.000   322.366 Ry
New grid distribution [1]: sub = 2

stepf: Fermi-Dirac step function

siesta: Program's energy decomposition (eV):
siesta: Ebs     =    -12985.892499
siesta: Eions   =     81244.997452
siesta: Ena     =      8165.035134
siesta: Ekin    =     17895.706143
siesta: Enl     =      1083.898353
siesta: Eso     =         0.000000
siesta: Edftu   =         0.000000
siesta: DEna    =       774.373995
siesta: DUscf   =        46.230508
siesta: DUext   =         0.000000
siesta: Ex      =    -10546.021789
siesta: Ec      =      -646.369908
siesta: Exc     =    -11192.391696
siesta: EbV     =         0.000000
siesta: eta*DQ  =         0.000000
siesta: Emadel  =         0.000000
siesta: Emeta   =         0.000000
siesta: Emolmec =         0.000000
siesta: Ekinion =         0.000000
siesta: Eharris =    -64367.551628
siesta: Etot    =    -64472.145014
siesta: FreeEng =    -64472.171053

        iscf     Eharris(eV)        E_KS(eV)     FreeEng(eV)     dDmax    Ef(eV) dHmax(eV)
   scf:    1   -64367.551628   -64472.145014   -64472.171053  0.663649 -3.213539 15.323607
timer: Routine,Calls,Time,% = IterSCF        1      20.017  32.87
   scf:    2   -64502.955761   -64496.275478   -64496.299517  0.485244 -4.839952  3.801627
   scf:    3   -64498.634791   -64498.264062   -64498.311090  0.151431 -4.902532  2.030442
   scf:    4   -64498.709306   -64498.544672   -64498.590237  0.048212 -4.998734  0.676528
   scf:    5   -64498.670003   -64498.621074   -64498.670287  0.036403 -5.071203  0.412292
   scf:    6   -64498.630965   -64498.634096   -64498.684442  0.020727 -5.112130  0.281733
   scf:    7   -64498.636934   -64498.639171   -64498.688223  0.011042 -5.122412  0.144106
   scf:    8   -64498.637943   -64498.639368   -64498.690043  0.009054 -5.135403  0.088130
   scf:    9   -64498.641386   -64498.640598   -64498.690408  0.003636 -5.146145  0.063393
   scf:   10   -64498.638199   -64498.639633   -64498.690509  0.004936 -5.154201  0.064539
   scf:   11   -64498.641111   -64498.640504   -64498.690671  0.002962 -5.158199  0.032766
   scf:   12   -64498.639793   -64498.640180   -64498.690719  0.001784 -5.162832  0.026685
   scf:   13   -64498.640738   -64498.640484   -64498.690728  0.001232 -5.166729  0.020707
   scf:   14   -64498.639781   -64498.640160   -64498.690740  0.001522 -5.169044  0.020692
   scf:   15   -64498.640567   -64498.640374   -64498.690755  0.000871 -5.170690  0.010174
   scf:   16   -64498.640134   -64498.640258   -64498.690758  0.000538 -5.172467  0.010183
   scf:   17   -64498.640512   -64498.640389   -64498.690758  0.000581 -5.173760  0.007742
   scf:   18   -64498.640153   -64498.640274   -64498.690761  0.000520 -5.174499  0.006637
   scf:   19   -64498.640393   -64498.640335   -64498.690762  0.000265 -5.175166  0.003475
   scf:   20   -64498.640243   -64498.640289   -64498.690762  0.000198 -5.175860  0.004011
   scf:   21   -64498.640396   -64498.640343   -64498.690763  0.000243 -5.176241  0.002802
   scf:   22   -64498.640266   -64498.640305   -64498.690763  0.000168 -5.176520  0.002100
   scf:   23   -64498.640342   -64498.640324   -64498.690763  0.000086 -5.176778  0.001274
   scf:   24   -64498.640286   -64498.640305   -64498.690763  0.000081 -5.177034  0.001549
   scf:   25   -64498.640345   -64498.640325   -64498.690763  0.000091 -5.177143  0.000958

SCF Convergence by DM+H criterion
max |DM_out - DM_in|         :     0.0000912236
max |H_out - H_in|      (eV) :     0.0009584141
SCF cycle converged after 25 iterations

Using DM_out to compute the final energy and forces
No. of atoms with KB's overlaping orbs in proc 0. Max # of overlaps:      16     175

siesta: E_KS(eV) =           -64498.6403

siesta: E_KS - E_eggbox =    -64498.6403

siesta: Atomic forces (eV/Ang):
----------------------------------------
   Tot    0.000511    0.001261   -0.000259
----------------------------------------
   Max    1.730873
   Res    1.067243    sqrt( Sum f_i^2 / 3N )
----------------------------------------
   Max    1.730873    constrained

Stress tensor Voigt[x,y,z,yz,xz,xy] (kbar):       -0.54       -0.73       -0.74       -0.01       -0.02       -0.03
(Free)E + p*V (eV/cell)   -64471.8338
Target enthalpy (eV/cell)   -64498.6908

                     ====================================
                        Begin CG opt. move =      1
                     ====================================

outcell: Unit cell vectors (Ang):
       40.000000    0.000000    0.000000
        0.000000   40.000000    0.000000
        0.000000    0.000000   40.000000

outcell: Cell vector modules (Ang)   :   40.000000   40.000000   40.000000
outcell: Cell angles (23,13,12) (deg):     90.0000     90.0000     90.0000
outcell: Cell volume (Ang**3)        :  64000.0000
<dSpData1D:S at geom step 1
  <sparsity:sparsity for geom step 1
    nrows_g=304 nrows=304 sparsity=.8237 nnzs=76126, refcount: 7>
  <dData1D:(new from dSpData1D) n=76126, refcount: 1>
refcount: 1>
new_DM -- step:     2
Re-using DM from previous geometries...
Number of DMs in history: 1
 DM extrapolation coefficients: 
1   1.00000
New DM after history re-use:
<dSpData2D:SpM extrapolated using coords
  <sparsity:sparsity for geom step 1
    nrows_g=304 nrows=304 sparsity=.8237 nnzs=76126, refcount: 9>
  <dData2D:(temp array for extrapolation) n=76126 m=1, refcount: 1>
refcount: 1>
No. of atoms with KB's overlaping orbs in proc 0. Max # of overlaps:      16     170

InitMesh: MESH = 432 x 432 x 432 = 80621568
InitMesh: Mesh cutoff (required, used) =   300.000   322.366 Ry
New grid distribution [1]: sub = 2

        iscf     Eharris(eV)        E_KS(eV)     FreeEng(eV)     dDmax    Ef(eV) dHmax(eV)
   scf:    1   -64501.163301   -64499.267669   -64499.315472  0.131194 -5.147771  0.724173
   scf:    2   -64497.409151   -64498.710886   -64498.769208  0.132782 -5.380669  2.809576
   scf:    3   -64499.407715   -64499.309630   -64499.357052  0.106735 -5.202749  0.161036
   scf:    4   -64499.291446   -64499.305168   -64499.356994  0.019902 -5.202469  0.174476
   scf:    5   -64499.312438   -64499.310021   -64499.359682  0.010747 -5.202388  0.005313
   scf:    6   -64499.309952   -64499.309987   -64499.359694  0.000352 -5.201766  0.003880
   scf:    7   -64499.310051   -64499.310020   -64499.359700  0.000368 -5.200875  0.003453
   scf:    8   -64499.309899   -64499.309960   -64499.359701  0.000312 -5.200284  0.003034
   scf:    9   -64499.310070   -64499.310016   -64499.359702  0.000207 -5.200229  0.001983
   scf:   10   -64499.309978   -64499.309997   -64499.359702  0.000076 -5.200070  0.000874

SCF Convergence by DM+H criterion
max |DM_out - DM_in|         :     0.0000761570
max |H_out - H_in|      (eV) :     0.0008742407
SCF cycle converged after 10 iterations

Using DM_out to compute the final energy and forces
No. of atoms with KB's overlaping orbs in proc 0. Max # of overlaps:      16     170

siesta: E_KS(eV) =           -64499.3100

siesta: Atomic forces (eV/Ang):
----------------------------------------
   Tot    0.000078    0.000246    0.000622
----------------------------------------
   Max    1.320328
   Res    0.772617    sqrt( Sum f_i^2 / 3N )
----------------------------------------
   Max    1.320328    constrained

Stress tensor Voigt[x,y,z,yz,xz,xy] (kbar):       -0.39       -0.57       -0.58       -0.01       -0.02       -0.02
(Free)E + p*V (eV/cell)   -64478.8402
Target enthalpy (eV/cell)   -64499.3597

                     ====================================
                        Begin CG opt. move =      2
                     ====================================

outcell: Unit cell vectors (Ang):
       40.000000    0.000000    0.000000
        0.000000   40.000000    0.000000
        0.000000    0.000000   40.000000

outcell: Cell vector modules (Ang)   :   40.000000   40.000000   40.000000
outcell: Cell angles (23,13,12) (deg):     90.0000     90.0000     90.0000
outcell: Cell volume (Ang**3)        :  64000.0000
<dSpData1D:S at geom step 2
  <sparsity:sparsity for geom step 2
    nrows_g=304 nrows=304 sparsity=.7913 nnzs=73126, refcount: 7>
  <dData1D:(new from dSpData1D) n=73126, refcount: 1>
refcount: 1>
new_DM -- step:     3
Re-using DM from previous geometries...
Number of DMs in history: 1
 DM extrapolation coefficients: 
1   1.00000
New DM after history re-use:
<dSpData2D:SpM extrapolated using coords
  <sparsity:sparsity for geom step 2
    nrows_g=304 nrows=304 sparsity=.7913 nnzs=73126, refcount: 9>
  <dData2D:(temp array for extrapolation) n=73126 m=1, refcount: 1>
refcount: 1>
No. of atoms with KB's overlaping orbs in proc 0. Max # of overlaps:      16     156

InitMesh: MESH = 432 x 432 x 432 = 80621568
InitMesh: Mesh cutoff (required, used) =   300.000   322.366 Ry
New grid distribution [1]: sub = 2

        iscf     Eharris(eV)        E_KS(eV)     FreeEng(eV)     dDmax    Ef(eV) dHmax(eV)
   scf:    1   -64502.115071   -64499.871260   -64499.916783  0.221615 -5.159152  1.111916
   scf:    2   -64495.722779   -64498.631949   -64498.691283  0.249541 -5.499922  4.283505
   scf:    3   -64500.184634   -64499.964360   -64500.009319  0.200785 -5.239502  0.226385
   scf:    4   -64499.933186   -64499.957930   -64500.009401  0.030681 -5.238534  0.240560
   scf:    5   -64499.969914   -64499.966354   -64500.014638  0.016829 -5.238429  0.010453
   scf:    6   -64499.966180   -64499.966270   -64500.014666  0.000824 -5.237597  0.005482
   scf:    7   -64499.966343   -64499.966307   -64500.014677  0.000491 -5.236609  0.005785
   scf:    8   -64499.966140   -64499.966226   -64500.014680  0.000721 -5.235633  0.005164
   scf:    9   -64499.966390   -64499.966310   -64500.014682  0.000455 -5.235595  0.004055
   scf:   10   -64499.966256   -64499.966283   -64500.014683  0.000204 -5.235312  0.001292
   scf:   11   -64499.966309   -64499.966296   -64500.014683  0.000106 -5.235024  0.001599
   scf:   12   -64499.966236   -64499.966267   -64500.014683  0.000155 -5.234851  0.001319
   scf:   13   -64499.966311   -64499.966289   -64500.014684  0.000112 -5.234822  0.000731
   scf:   14   -64499.966279   -64499.966284   -64500.014684  0.000036 -5.234750  0.000335

SCF Convergence by DM+H criterion
max |DM_out - DM_in|         :     0.0000359814
max |H_out - H_in|      (eV) :     0.0003349724
SCF cycle converged after 14 iterations

Using DM_out to compute the final energy and forces
No. of atoms with KB's overlaping orbs in proc 0. Max # of overlaps:      16     156

siesta: E_KS(eV) =           -64499.9663

siesta: Atomic forces (eV/Ang):
----------------------------------------
   Tot    0.000120   -0.000564    0.000334
----------------------------------------
   Max    0.855263
   Res    0.434234    sqrt( Sum f_i^2 / 3N )
----------------------------------------
   Max    0.855263    constrained

Stress tensor Voigt[x,y,z,yz,xz,xy] (kbar):       -0.18       -0.35       -0.36       -0.01       -0.02       -0.02
(Free)E + p*V (eV/cell)   -64488.1601
Target enthalpy (eV/cell)   -64500.0147

                     ====================================
                        Begin CG opt. move =      3
                     ====================================

outcell: Unit cell vectors (Ang):
       40.000000    0.000000    0.000000
        0.000000   40.000000    0.000000
        0.000000    0.000000   40.000000

outcell: Cell vector modules (Ang)   :   40.000000   40.000000   40.000000
outcell: Cell angles (23,13,12) (deg):     90.0000     90.0000     90.0000
outcell: Cell volume (Ang**3)        :  64000.0000
<dSpData1D:S at geom step 3
  <sparsity:sparsity for geom step 3
    nrows_g=304 nrows=304 sparsity=.7519 nnzs=69490, refcount: 7>
  <dData1D:(new from dSpData1D) n=69490, refcount: 1>
refcount: 1>
new_DM -- step:     4
Re-using DM from previous geometries...
Number of DMs in history: 1
 DM extrapolation coefficients: 
1   1.00000
New DM after history re-use:
<dSpData2D:SpM extrapolated using coords
  <sparsity:sparsity for geom step 3
    nrows_g=304 nrows=304 sparsity=.7519 nnzs=69490, refcount: 9>
  <dData2D:(temp array for extrapolation) n=69490 m=1, refcount: 1>
refcount: 1>
No. of atoms with KB's overlaping orbs in proc 0. Max # of overlaps:      16     146

InitMesh: MESH = 432 x 432 x 432 = 80621568
InitMesh: Mesh cutoff (required, used) =   300.000   322.366 Ry
New grid distribution [1]: sub = 2

        iscf     Eharris(eV)        E_KS(eV)     FreeEng(eV)     dDmax    Ef(eV) dHmax(eV)
   scf:    1   -64501.924107   -64500.003611   -64500.046013  0.369756 -5.185977  1.667488
   scf:    2   -64491.354395   -64497.424493   -64497.484645  0.486445 -5.659560  6.368241
   scf:    3   -64500.696710   -64500.198337   -64500.240169  0.391687 -5.297097  0.261548
   scf:    4   -64500.157252   -64500.190827   -64500.240746  0.038932 -5.295264  0.277051
   scf:    5   -64500.206650   -64500.202278   -64500.248082  0.022360 -5.295009  0.020424
   scf:    6   -64500.201860   -64500.202084   -64500.248149  0.002247 -5.293921  0.009060
   scf:    7   -64500.202161   -64500.202125   -64500.248168  0.000865 -5.292825  0.007659
   scf:    8   -64500.202024   -64500.202078   -64500.248177  0.001335 -5.291597  0.006603
   scf:    9   -64500.202207   -64500.202146   -64500.248180  0.000813 -5.291234  0.006514
   scf:   10   -64500.202065   -64500.202106   -64500.248183  0.000533 -5.290934  0.002317
   scf:   11   -64500.202151   -64500.202129   -64500.248184  0.000185 -5.290608  0.002273
   scf:   12   -64500.202067   -64500.202098   -64500.248184  0.000235 -5.290352  0.001774
   scf:   13   -64500.202153   -64500.202126   -64500.248185  0.000166 -5.290250  0.001413
   scf:   14   -64500.202101   -64500.202113   -64500.248185  0.000092 -5.290142  0.000679

SCF Convergence by DM+H criterion
max |DM_out - DM_in|         :     0.0000922614
max |H_out - H_in|      (eV) :     0.0006791278
SCF cycle converged after 14 iterations

Using DM_out to compute the final energy and forces
No. of atoms with KB's overlaping orbs in proc 0. Max # of overlaps:      16     146

siesta: E_KS(eV) =           -64500.2021

siesta: Atomic forces (eV/Ang):
----------------------------------------
   Tot   -0.000795   -0.000656   -0.000010
----------------------------------------
   Max    1.091747
   Res    0.371987    sqrt( Sum f_i^2 / 3N )
----------------------------------------
   Max    1.091747    constrained

Stress tensor Voigt[x,y,z,yz,xz,xy] (kbar):        0.06       -0.07       -0.09       -0.01       -0.01       -0.02
(Free)E + p*V (eV/cell)   -64499.0166
Target enthalpy (eV/cell)   -64500.2482

                     ====================================
                        Begin CG opt. move =      4
                     ====================================

outcell: Unit cell vectors (Ang):
       40.000000    0.000000    0.000000
        0.000000   40.000000    0.000000
        0.000000    0.000000   40.000000

outcell: Cell vector modules (Ang)   :   40.000000   40.000000   40.000000
outcell: Cell angles (23,13,12) (deg):     90.0000     90.0000     90.0000
outcell: Cell volume (Ang**3)        :  64000.0000
<dSpData1D:S at geom step 4
  <sparsity:sparsity for geom step 4
    nrows_g=304 nrows=304 sparsity=.7531 nnzs=69600, refcount: 7>
  <dData1D:(new from dSpData1D) n=69600, refcount: 1>
refcount: 1>
new_DM -- step:     5
Re-using DM from previous geometries...
Number of DMs in history: 1
 DM extrapolation coefficients: 
1   1.00000
New DM after history re-use:
<dSpData2D:SpM extrapolated using coords
  <sparsity:sparsity for geom step 4
    nrows_g=304 nrows=304 sparsity=.7531 nnzs=69600, refcount: 9>
  <dData2D:(temp array for extrapolation) n=69600 m=1, refcount: 1>
refcount: 1>
No. of atoms with KB's overlaping orbs in proc 0. Max # of overlaps:      16     146

InitMesh: MESH = 432 x 432 x 432 = 80621568
InitMesh: Mesh cutoff (required, used) =   300.000   322.366 Ry
New grid distribution [1]: sub = 2

        iscf     Eharris(eV)        E_KS(eV)     FreeEng(eV)     dDmax    Ef(eV) dHmax(eV)
   scf:    1   -64499.696109   -64500.214189   -64500.261127  0.066774 -5.296247  0.284476
   scf:    2   -64499.961540   -64500.140176   -64500.183709  0.081775 -5.217410  1.139247
   scf:    3   -64500.231737   -64500.219920   -64500.266838  0.066092 -5.278682  0.027429
   scf:    4   -64500.221198   -64500.220687   -64500.266849  0.003778 -5.278395  0.030061
   scf:    5   -64500.220000   -64500.220376   -64500.266922  0.002069 -5.278411  0.002396
   scf:    6   -64500.220394   -64500.220385   -64500.266924  0.000162 -5.278589  0.001327
   scf:    7   -64500.220370   -64500.220378   -64500.266924  0.000145 -5.278838  0.001018
   scf:    8   -64500.220405   -64500.220392   -64500.266925  0.000120 -5.278974  0.000932
   scf:    9   -64500.220367   -64500.220379   -64500.266925  0.000064 -5.279012  0.000585

SCF Convergence by DM+H criterion
max |DM_out - DM_in|         :     0.0000636327
max |H_out - H_in|      (eV) :     0.0005845799
SCF cycle converged after 9 iterations

Using DM_out to compute the final energy and forces
No. of atoms with KB's overlaping orbs in proc 0. Max # of overlaps:      16     146

siesta: E_KS(eV) =           -64500.2204

siesta: Atomic forces (eV/Ang):
----------------------------------------
   Tot   -0.001836   -0.000785   -0.000507
----------------------------------------
   Max    0.993728
   Res    0.341067    sqrt( Sum f_i^2 / 3N )
----------------------------------------
   Max    0.993728    constrained

Stress tensor Voigt[x,y,z,yz,xz,xy] (kbar):        0.02       -0.11       -0.14       -0.01       -0.02       -0.02
(Free)E + p*V (eV/cell)   -64497.2285
Target enthalpy (eV/cell)   -64500.2669

cgvc: Finished line minimization    1.  Mean atomic displacement =    0.1293

                     ====================================
                        Begin CG opt. move =      5
                     ====================================

outcell: Unit cell vectors (Ang):
       40.000000    0.000000    0.000000
        0.000000   40.000000    0.000000
        0.000000    0.000000   40.000000

outcell: Cell vector modules (Ang)   :   40.000000   40.000000   40.000000
outcell: Cell angles (23,13,12) (deg):     90.0000     90.0000     90.0000
outcell: Cell volume (Ang**3)        :  64000.0000
<dSpData1D:S at geom step 5
  <sparsity:sparsity for geom step 5
    nrows_g=304 nrows=304 sparsity=.7335 nnzs=67786, refcount: 7>
  <dData1D:(new from dSpData1D) n=67786, refcount: 1>
refcount: 1>
new_DM -- step:     6
Re-using DM from previous geometries...
Number of DMs in history: 1
 DM extrapolation coefficients: 
1   1.00000
New DM after history re-use:
<dSpData2D:SpM extrapolated using coords
  <sparsity:sparsity for geom step 5
    nrows_g=304 nrows=304 sparsity=.7335 nnzs=67786, refcount: 9>
  <dData2D:(temp array for extrapolation) n=67786 m=1, refcount: 1>
refcount: 1>
No. of atoms with KB's overlaping orbs in proc 0. Max # of overlaps:      16     132

InitMesh: MESH = 432 x 432 x 432 = 80621568
InitMesh: Mesh cutoff (required, used) =   300.000   322.366 Ry
New grid distribution [1]: sub = 2

        iscf     Eharris(eV)        E_KS(eV)     FreeEng(eV)     dDmax    Ef(eV) dHmax(eV)
   scf:    1   -64500.581715   -64500.054808   -64500.115497  0.244077 -5.268810  1.375611
   scf:    2   -64485.135058   -64495.532384   -64495.532759  0.573904 -5.249333  7.625400
   scf:    3   -64501.684538   -64500.184546   -64500.226016  0.366889 -5.278879  0.909035
   scf:    4   -64499.794034   -64500.156407   -64500.220445  0.219387 -5.274160  0.844907
   scf:    5   -64500.259831   -64500.260924   -64500.316290  0.130185 -5.275033  0.089117
   scf:    6   -64500.258554   -64500.260224   -64500.317502  0.010668 -5.273819  0.024298
   scf:    7   -64500.260550   -64500.260467   -64500.317566  0.003649 -5.273080  0.022240
   scf:    8   -64500.260479   -64500.260499   -64500.317620  0.002278 -5.272826  0.009636
   scf:    9   -64500.260307   -64500.260406   -64500.317635  0.000651 -5.272528  0.005952
   scf:   10   -64500.260588   -64500.260498   -64500.317641  0.000629 -5.272373  0.004680
   scf:   11   -64500.260402   -64500.260451   -64500.317644  0.000295 -5.272274  0.003072
   scf:   12   -64500.260514   -64500.260482   -64500.317646  0.000298 -5.272205  0.002482
   scf:   13   -64500.260435   -64500.260459   -64500.317647  0.000174 -5.272173  0.001998
   scf:   14   -64500.260493   -64500.260476   -64500.317647  0.000193 -5.272151  0.001316
   scf:   15   -64500.260460   -64500.260468   -64500.317647  0.000073 -5.272139  0.000988

SCF Convergence by DM+H criterion
max |DM_out - DM_in|         :     0.0000726586
max |H_out - H_in|      (eV) :     0.0009876084
SCF cycle converged after 15 iterations

Using DM_out to compute the final energy and forces
No. of atoms with KB's overlaping orbs in proc 0. Max # of overlaps:      16     132

siesta: E_KS(eV) =           -64500.2605

siesta: Atomic forces (eV/Ang):
----------------------------------------
   Tot   -0.002189   -0.000388    0.000734
----------------------------------------
   Max    0.896079
   Res    0.281927    sqrt( Sum f_i^2 / 3N )
----------------------------------------
   Max    0.896079    constrained

Stress tensor Voigt[x,y,z,yz,xz,xy] (kbar):        0.05        0.05        0.03       -0.02        0.01        0.00
(Free)E + p*V (eV/cell)   -64501.9642
Target enthalpy (eV/cell)   -64500.3176

                     ====================================
                        Begin CG opt. move =      6
                     ====================================

outcell: Unit cell vectors (Ang):
       40.000000    0.000000    0.000000
        0.000000   40.000000    0.000000
        0.000000    0.000000   40.000000

outcell: Cell vector modules (Ang)   :   40.000000   40.000000   40.000000
outcell: Cell angles (23,13,12) (deg):     90.0000     90.0000     90.0000
outcell: Cell volume (Ang**3)        :  64000.0000
<dSpData1D:S at geom step 6
  <sparsity:sparsity for geom step 6
    nrows_g=304 nrows=304 sparsity=.7502 nnzs=69326, refcount: 7>
  <dData1D:(new from dSpData1D) n=69326, refcount: 1>
refcount: 1>
new_DM -- step:     7
Re-using DM from previous geometries...
Number of DMs in history: 1
 DM extrapolation coefficients: 
1   1.00000
New DM after history re-use:
<dSpData2D:SpM extrapolated using coords
  <sparsity:sparsity for geom step 6
    nrows_g=304 nrows=304 sparsity=.7502 nnzs=69326, refcount: 9>
  <dData2D:(temp array for extrapolation) n=69326 m=1, refcount: 1>
refcount: 1>
No. of atoms with KB's overlaping orbs in proc 0. Max # of overlaps:      16     146

InitMesh: MESH = 432 x 432 x 432 = 80621568
InitMesh: Mesh cutoff (required, used) =   300.000   322.366 Ry
New grid distribution [1]: sub = 2

        iscf     Eharris(eV)        E_KS(eV)     FreeEng(eV)     dDmax    Ef(eV) dHmax(eV)
   scf:    1   -64499.516639   -64500.343929   -64500.391435  0.093902 -5.271283  0.433863
   scf:    2   -64495.446874   -64498.779199   -64498.817325  0.425432 -5.274582  4.148051
   scf:    3   -64500.465152   -64500.359238   -64500.411183  0.387863 -5.273130  0.077912
   scf:    4   -64500.355063   -64500.357784   -64500.411746  0.010508 -5.273602  0.042143
   scf:    5   -64500.358257   -64500.358199   -64500.411954  0.006155 -5.274010  0.032436
   scf:    6   -64500.359100   -64500.358733   -64500.411992  0.003542 -5.274323  0.020573
   scf:    7   -64500.357832   -64500.358312   -64500.412038  0.002457 -5.274521  0.008292
   scf:    8   -64500.358421   -64500.358371   -64500.412045  0.000996 -5.274679  0.006374
   scf:    9   -64500.358478   -64500.358428   -64500.412047  0.000714 -5.274746  0.005123
   scf:   10   -64500.358258   -64500.358344   -64500.412050  0.000597 -5.274799  0.002448
   scf:   11   -64500.358387   -64500.358366   -64500.412050  0.000152 -5.274831  0.001225
   scf:   12   -64500.358357   -64500.358361   -64500.412051  0.000136 -5.274851  0.001210
   scf:   13   -64500.358345   -64500.358353   -64500.412051  0.000118 -5.274859  0.000831
   scf:   14   -64500.358362   -64500.358358   -64500.412051  0.000029 -5.274863  0.000613

SCF Convergence by DM+H criterion
max |DM_out - DM_in|         :     0.0000294761
max |H_out - H_in|      (eV) :     0.0006127497
SCF cycle converged after 14 iterations

Using DM_out to compute the final energy and forces
No. of atoms with KB's overlaping orbs in proc 0. Max # of overlaps:      16     146

siesta: E_KS(eV) =           -64500.3584

siesta: Atomic forces (eV/Ang):
----------------------------------------
   Tot   -0.001532    0.000102   -0.000113
----------------------------------------
   Max    0.312968
   Res    0.129323    sqrt( Sum f_i^2 / 3N )
----------------------------------------
   Max    0.312968    constrained

Stress tensor Voigt[x,y,z,yz,xz,xy] (kbar):        0.04       -0.00       -0.02       -0.02       -0.00       -0.00
(Free)E + p*V (eV/cell)   -64500.7033
Target enthalpy (eV/cell)   -64500.4121

cgvc: Finished line minimization    2.  Mean atomic displacement =    0.0788

                     ====================================
                        Begin CG opt. move =      7
                     ====================================

outcell: Unit cell vectors (Ang):
       40.000000    0.000000    0.000000
        0.000000   40.000000    0.000000
        0.000000    0.000000   40.000000

outcell: Cell vector modules (Ang)   :   40.000000   40.000000   40.000000
outcell: Cell angles (23,13,12) (deg):     90.0000     90.0000     90.0000
outcell: Cell volume (Ang**3)        :  64000.0000
<dSpData1D:S at geom step 7
  <sparsity:sparsity for geom step 7
    nrows_g=304 nrows=304 sparsity=.7375 nnzs=68158, refcount: 7>
  <dData1D:(new from dSpData1D) n=68158, refcount: 1>
refcount: 1>
new_DM -- step:     8
Re-using DM from previous geometries...
Number of DMs in history: 1
 DM extrapolation coefficients: 
1   1.00000
New DM after history re-use:
<dSpData2D:SpM extrapolated using coords
  <sparsity:sparsity for geom step 7
    nrows_g=304 nrows=304 sparsity=.7375 nnzs=68158, refcount: 9>
  <dData2D:(temp array for extrapolation) n=68158 m=1, refcount: 1>
refcount: 1>
No. of atoms with KB's overlaping orbs in proc 0. Max # of overlaps:      16     139

InitMesh: MESH = 432 x 432 x 432 = 80621568
InitMesh: Mesh cutoff (required, used) =   300.000   322.366 Ry
New grid distribution [1]: sub = 2

        iscf     Eharris(eV)        E_KS(eV)     FreeEng(eV)     dDmax    Ef(eV) dHmax(eV)
   scf:    1   -64500.361048   -64500.386995   -64500.417063  0.123860 -5.232417  0.433296
   scf:    2   -64496.063211   -64499.005357   -64499.058695  0.426919 -5.200296  3.589265
   scf:    3   -64500.481726   -64500.401874   -64500.441782  0.397972 -5.226302  0.150294
   scf:    4   -64500.398269   -64500.401397   -64500.444355  0.014411 -5.227761  0.044745
   scf:    5   -64500.398858   -64500.400280   -64500.444600  0.006092 -5.227009  0.030135
   scf:    6   -64500.401424   -64500.400915   -64500.444661  0.002444 -5.227035  0.015650
   scf:    7   -64500.400035   -64500.400502   -64500.444700  0.002334 -5.227083  0.010236
   scf:    8   -64500.400360   -64500.400433   -64500.444714  0.000570 -5.227060  0.005665
   scf:    9   -64500.400415   -64500.400425   -64500.444719  0.000247 -5.227076  0.002769
   scf:   10   -64500.400294   -64500.400360   -64500.444721  0.000281 -5.227091  0.001712
   scf:   11   -64500.400348   -64500.400354   -64500.444722  0.000151 -5.227105  0.001539
   scf:   12   -64500.400333   -64500.400344   -64500.444723  0.000087 -5.227121  0.000848

SCF Convergence by DM+H criterion
max |DM_out - DM_in|         :     0.0000871320
max |H_out - H_in|      (eV) :     0.0008475277
SCF cycle converged after 12 iterations

Using DM_out to compute the final energy and forces
No. of atoms with KB's overlaping orbs in proc 0. Max # of overlaps:      16     139

siesta: E_KS(eV) =           -64500.4003

siesta: Atomic forces (eV/Ang):
----------------------------------------
   Tot   -0.002932    0.002451   -0.000444
----------------------------------------
   Max    0.336547
   Res    0.126051    sqrt( Sum f_i^2 / 3N )
----------------------------------------
   Max    0.336547    constrained

Stress tensor Voigt[x,y,z,yz,xz,xy] (kbar):        0.00        0.05        0.02       -0.02        0.01        0.01
(Free)E + p*V (eV/cell)   -64501.3398
Target enthalpy (eV/cell)   -64500.4447

                     ====================================
                        Begin CG opt. move =      8
                     ====================================

outcell: Unit cell vectors (Ang):
       40.000000    0.000000    0.000000
        0.000000   40.000000    0.000000
        0.000000    0.000000   40.000000

outcell: Cell vector modules (Ang)   :   40.000000   40.000000   40.000000
outcell: Cell angles (23,13,12) (deg):     90.0000     90.0000     90.0000
outcell: Cell volume (Ang**3)        :  64000.0000
<dSpData1D:S at geom step 8
  <sparsity:sparsity for geom step 8
    nrows_g=304 nrows=304 sparsity=.7405 nnzs=68438, refcount: 7>
  <dData1D:(new from dSpData1D) n=68438, refcount: 1>
refcount: 1>
new_DM -- step:     9
Re-using DM from previous geometries...
Number of DMs in history: 1
 DM extrapolation coefficients: 
1   1.00000
New DM after history re-use:
<dSpData2D:SpM extrapolated using coords
  <sparsity:sparsity for geom step 8
    nrows_g=304 nrows=304 sparsity=.7405 nnzs=68438, refcount: 9>
  <dData2D:(temp array for extrapolation) n=68438 m=1, refcount: 1>
refcount: 1>
No. of atoms with KB's overlaping orbs in proc 0. Max # of overlaps:      16     139

InitMesh: MESH = 432 x 432 x 432 = 80621568
InitMesh: Mesh cutoff (required, used) =   300.000   322.366 Ry
New grid distribution [1]: sub = 2

        iscf     Eharris(eV)        E_KS(eV)     FreeEng(eV)     dDmax    Ef(eV) dHmax(eV)
   scf:    1   -64500.241429   -64500.395386   -64500.447456  0.038950 -5.238697  0.169352
   scf:    2   -64500.098562   -64500.314643   -64500.338001  0.111486 -5.250138  1.081058
   scf:    3   -64500.403581   -64500.404622   -64500.451305  0.088603 -5.241553  0.039961
   scf:    4   -64500.402745   -64500.403793   -64500.451465  0.004480 -5.241324  0.013388
   scf:    5   -64500.404249   -64500.404040   -64500.451483  0.001686 -5.241396  0.010056
   scf:    6   -64500.404338   -64500.404195   -64500.451490  0.001092 -5.241408  0.005862
   scf:    7   -64500.404023   -64500.404111   -64500.451493  0.000372 -5.241412  0.001703
   scf:    8   -64500.404226   -64500.404169   -64500.451494  0.000250 -5.241411  0.001312
   scf:    9   -64500.404172   -64500.404170   -64500.451495  0.000124 -5.241406  0.001158
   scf:   10   -64500.404169   -64500.404169   -64500.451495  0.000062 -5.241399  0.000595

SCF Convergence by DM+H criterion
max |DM_out - DM_in|         :     0.0000618556
max |H_out - H_in|      (eV) :     0.0005945984
SCF cycle converged after 10 iterations

Using DM_out to compute the final energy and forces
No. of atoms with KB's overlaping orbs in proc 0. Max # of overlaps:      16     139

siesta: E_KS(eV) =           -64500.4042

siesta: Atomic forces (eV/Ang):
----------------------------------------
   Tot   -0.003919    0.001308   -0.001234
----------------------------------------
   Max    0.221238
   Res    0.096388    sqrt( Sum f_i^2 / 3N )
----------------------------------------
   Max    0.221238    constrained

Stress tensor Voigt[x,y,z,yz,xz,xy] (kbar):        0.01        0.03        0.01       -0.02        0.01        0.01
(Free)E + p*V (eV/cell)   -64501.2434
Target enthalpy (eV/cell)   -64500.4515

cgvc: Finished line minimization    3.  Mean atomic displacement =    0.0558

                     ====================================
                        Begin CG opt. move =      9
                     ====================================

outcell: Unit cell vectors (Ang):
       40.000000    0.000000    0.000000
        0.000000   40.000000    0.000000
        0.000000    0.000000   40.000000

outcell: Cell vector modules (Ang)   :   40.000000   40.000000   40.000000
outcell: Cell angles (23,13,12) (deg):     90.0000     90.0000     90.0000
outcell: Cell volume (Ang**3)        :  64000.0000
<dSpData1D:S at geom step 9
  <sparsity:sparsity for geom step 9
    nrows_g=304 nrows=304 sparsity=.7432 nnzs=68688, refcount: 7>
  <dData1D:(new from dSpData1D) n=68688, refcount: 1>
refcount: 1>
new_DM -- step:    10
Re-using DM from previous geometries...
Number of DMs in history: 1
 DM extrapolation coefficients: 
1   1.00000
New DM after history re-use:
<dSpData2D:SpM extrapolated using coords
  <sparsity:sparsity for geom step 9
    nrows_g=304 nrows=304 sparsity=.7432 nnzs=68688, refcount: 9>
  <dData2D:(temp array for extrapolation) n=68688 m=1, refcount: 1>
refcount: 1>
No. of atoms with KB's overlaping orbs in proc 0. Max # of overlaps:      16     142

InitMesh: MESH = 432 x 432 x 432 = 80621568
InitMesh: Mesh cutoff (required, used) =   300.000   322.366 Ry
New grid distribution [1]: sub = 2

        iscf     Eharris(eV)        E_KS(eV)     FreeEng(eV)     dDmax    Ef(eV) dHmax(eV)
   scf:    1   -64499.658853   -64500.414104   -64500.445183  0.114694 -5.227569  0.516757
   scf:    2   -64495.269504   -64498.753348   -64498.816313  0.357945 -5.238102  4.216122
   scf:    3   -64500.538468   -64500.431415   -64500.466573  0.339708 -5.231549  0.118294
   scf:    4   -64500.426865   -64500.430242   -64500.468654  0.014500 -5.230889  0.035118
   scf:    5   -64500.429491   -64500.429972   -64500.468791  0.003869 -5.231482  0.024386
   scf:    6   -64500.430391   -64500.430202   -64500.468834  0.001229 -5.231629  0.006056
   scf:    7   -64500.429622   -64500.429921   -64500.468845  0.001394 -5.231767  0.008706
   scf:    8   -64500.429936   -64500.429931   -64500.468852  0.000557 -5.231825  0.003101
   scf:    9   -64500.429865   -64500.429898   -64500.468855  0.000225 -5.231888  0.001708
   scf:   10   -64500.429830   -64500.429864   -64500.468856  0.000218 -5.231916  0.001255
   scf:   11   -64500.429840   -64500.429852   -64500.468856  0.000129 -5.231920  0.001036
   scf:   12   -64500.429843   -64500.429847   -64500.468857  0.000062 -5.231923  0.000625

SCF Convergence by DM+H criterion
max |DM_out - DM_in|         :     0.0000617855
max |H_out - H_in|      (eV) :     0.0006251788
SCF cycle converged after 12 iterations

Using DM_out to compute the final energy and forces
No. of atoms with KB's overlaping orbs in proc 0. Max # of overlaps:      16     142

siesta: E_KS(eV) =           -64500.4298

siesta: Atomic forces (eV/Ang):
----------------------------------------
   Tot   -0.001482   -0.000345   -0.000631
----------------------------------------
   Max    0.302831
   Res    0.110603    sqrt( Sum f_i^2 / 3N )
----------------------------------------
   Max    0.302831    constrained

Stress tensor Voigt[x,y,z,yz,xz,xy] (kbar):        0.01        0.00       -0.02        0.00        0.00        0.00
(Free)E + p*V (eV/cell)   -64500.3037
Target enthalpy (eV/cell)   -64500.4689

                     ====================================
                        Begin CG opt. move =     10
                     ====================================

outcell: Unit cell vectors (Ang):
       40.000000    0.000000    0.000000
        0.000000   40.000000    0.000000
        0.000000    0.000000   40.000000

outcell: Cell vector modules (Ang)   :   40.000000   40.000000   40.000000
outcell: Cell angles (23,13,12) (deg):     90.0000     90.0000     90.0000
outcell: Cell volume (Ang**3)        :  64000.0000
<dSpData1D:S at geom step 10
  <sparsity:sparsity for geom step 10
    nrows_g=304 nrows=304 sparsity=.7425 nnzs=68616, refcount: 7>
  <dData1D:(new from dSpData1D) n=68616, refcount: 1>
refcount: 1>
new_DM -- step:    11
Re-using DM from previous geometries...
Number of DMs in history: 1
 DM extrapolation coefficients: 
1   1.00000
New DM after history re-use:
<dSpData2D:SpM extrapolated using coords
  <sparsity:sparsity for geom step 10
    nrows_g=304 nrows=304 sparsity=.7425 nnzs=68616, refcount: 9>
  <dData2D:(temp array for extrapolation) n=68616 m=1, refcount: 1>
refcount: 1>
No. of atoms with KB's overlaping orbs in proc 0. Max # of overlaps:      16     142

InitMesh: MESH = 432 x 432 x 432 = 80621568
InitMesh: Mesh cutoff (required, used) =   300.000   322.366 Ry
New grid distribution [1]: sub = 2

        iscf     Eharris(eV)        E_KS(eV)     FreeEng(eV)     dDmax    Ef(eV) dHmax(eV)
   scf:    1   -64500.587428   -64500.427405   -64500.472527  0.039946 -5.235794  0.200635
   scf:    2   -64500.049110   -64500.316216   -64500.341739  0.092559 -5.232403  1.192760
   scf:    3   -64500.437927   -64500.434095   -64500.475983  0.077670 -5.235618  0.028172
   scf:    4   -64500.433304   -64500.433731   -64500.476035  0.001907 -5.235497  0.007138
   scf:    5   -64500.434081   -64500.433914   -64500.476045  0.001018 -5.235433  0.004663
   scf:    6   -64500.434049   -64500.433984   -64500.476049  0.000532 -5.235364  0.003392
   scf:    7   -64500.433917   -64500.433951   -64500.476050  0.000158 -5.235314  0.001096
   scf:    8   -64500.434030   -64500.433990   -64500.476051  0.000140 -5.235277  0.001007
   scf:    9   -64500.433989   -64500.433990   -64500.476051  0.000069 -5.235261  0.000579

SCF Convergence by DM+H criterion
max |DM_out - DM_in|         :     0.0000686041
max |H_out - H_in|      (eV) :     0.0005786948
SCF cycle converged after 9 iterations

Using DM_out to compute the final energy and forces
No. of atoms with KB's overlaping orbs in proc 0. Max # of overlaps:      16     142

siesta: E_KS(eV) =           -64500.4340

siesta: Atomic forces (eV/Ang):
----------------------------------------
   Tot   -0.001894    0.000783   -0.000818
----------------------------------------
   Max    0.157067
   Res    0.061033    sqrt( Sum f_i^2 / 3N )
----------------------------------------
   Max    0.157067    constrained

Stress tensor Voigt[x,y,z,yz,xz,xy] (kbar):        0.01        0.02       -0.01       -0.01        0.01        0.00
(Free)E + p*V (eV/cell)   -64500.6998
Target enthalpy (eV/cell)   -64500.4761

cgvc: Finished line minimization    4.  Mean atomic displacement =    0.0360

                     ====================================
                        Begin CG opt. move =     11
                     ====================================

outcell: Unit cell vectors (Ang):
       40.000000    0.000000    0.000000
        0.000000   40.000000    0.000000
        0.000000    0.000000   40.000000

outcell: Cell vector modules (Ang)   :   40.000000   40.000000   40.000000
outcell: Cell angles (23,13,12) (deg):     90.0000     90.0000     90.0000
outcell: Cell volume (Ang**3)        :  64000.0000
<dSpData1D:S at geom step 11
  <sparsity:sparsity for geom step 11
    nrows_g=304 nrows=304 sparsity=.7431 nnzs=68674, refcount: 7>
  <dData1D:(new from dSpData1D) n=68674, refcount: 1>
refcount: 1>
new_DM -- step:    12
Re-using DM from previous geometries...
Number of DMs in history: 1
 DM extrapolation coefficients: 
1   1.00000
New DM after history re-use:
<dSpData2D:SpM extrapolated using coords
  <sparsity:sparsity for geom step 11
    nrows_g=304 nrows=304 sparsity=.7431 nnzs=68674, refcount: 9>
  <dData2D:(temp array for extrapolation) n=68674 m=1, refcount: 1>
refcount: 1>
No. of atoms with KB's overlaping orbs in proc 0. Max # of overlaps:      16     140

InitMesh: MESH = 432 x 432 x 432 = 80621568
InitMesh: Mesh cutoff (required, used) =   300.000   322.366 Ry
New grid distribution [1]: sub = 2

        iscf     Eharris(eV)        E_KS(eV)     FreeEng(eV)     dDmax    Ef(eV) dHmax(eV)
   scf:    1   -64500.074963   -64500.447174   -64500.484397  0.049940 -5.239140  0.223081
   scf:    2   -64499.983287   -64500.300724   -64500.346832  0.113480 -5.192416  1.089502
   scf:    3   -64500.474902   -64500.451131   -64500.490256  0.098066 -5.227997  0.025213
   scf:    4   -64500.449784   -64500.450541   -64500.490403  0.003213 -5.227834  0.013406
   scf:    5   -64500.450573   -64500.450562   -64500.490420  0.000507 -5.227759  0.005187
   scf:    6   -64500.450600   -64500.450582   -64500.490424  0.000255 -5.227801  0.002462
   scf:    7   -64500.450446   -64500.450514   -64500.490426  0.000202 -5.227840  0.002394
   scf:    8   -64500.450510   -64500.450512   -64500.490427  0.000122 -5.227875  0.001298
   scf:    9   -64500.450469   -64500.450491   -64500.490427  0.000078 -5.227920  0.001223
   scf:   10   -64500.450502   -64500.450497   -64500.490428  0.000098 -5.227943  0.000766

SCF Convergence by DM+H criterion
max |DM_out - DM_in|         :     0.0000980564
max |H_out - H_in|      (eV) :     0.0007656946
SCF cycle converged after 10 iterations

Using DM_out to compute the final energy and forces
No. of atoms with KB's overlaping orbs in proc 0. Max # of overlaps:      16     140

siesta: E_KS(eV) =           -64500.4505

siesta: Atomic forces (eV/Ang):
----------------------------------------
   Tot   -0.000905    0.000969   -0.000599
----------------------------------------
   Max    0.148772
   Res    0.061195    sqrt( Sum f_i^2 / 3N )
----------------------------------------
   Max    0.148772    constrained

Stress tensor Voigt[x,y,z,yz,xz,xy] (kbar):       -0.01       -0.01       -0.04       -0.00        0.00        0.01
(Free)E + p*V (eV/cell)   -64499.7904
Target enthalpy (eV/cell)   -64500.4904

                     ====================================
                        Begin CG opt. move =     12
                     ====================================

outcell: Unit cell vectors (Ang):
       40.000000    0.000000    0.000000
        0.000000   40.000000    0.000000
        0.000000    0.000000   40.000000

outcell: Cell vector modules (Ang)   :   40.000000   40.000000   40.000000
outcell: Cell angles (23,13,12) (deg):     90.0000     90.0000     90.0000
outcell: Cell volume (Ang**3)        :  64000.0000
<dSpData1D:S at geom step 12
  <sparsity:sparsity for geom step 12
    nrows_g=304 nrows=304 sparsity=.7435 nnzs=68712, refcount: 7>
  <dData1D:(new from dSpData1D) n=68712, refcount: 1>
refcount: 1>
new_DM -- step:    13
Re-using DM from previous geometries...
Number of DMs in history: 1
 DM extrapolation coefficients: 
1   1.00000
New DM after history re-use:
<dSpData2D:SpM extrapolated using coords
  <sparsity:sparsity for geom step 12
    nrows_g=304 nrows=304 sparsity=.7435 nnzs=68712, refcount: 9>
  <dData2D:(temp array for extrapolation) n=68712 m=1, refcount: 1>
refcount: 1>
No. of atoms with KB's overlaping orbs in proc 0. Max # of overlaps:      16     137

InitMesh: MESH = 432 x 432 x 432 = 80621568
InitMesh: Mesh cutoff (required, used) =   300.000   322.366 Ry
New grid distribution [1]: sub = 2

        iscf     Eharris(eV)        E_KS(eV)     FreeEng(eV)     dDmax    Ef(eV) dHmax(eV)
   scf:    1   -64499.677148   -64500.414429   -64500.446385  0.071524 -5.233660  0.331314
   scf:    2   -64499.486741   -64500.125881   -64500.168150  0.149183 -5.154007  1.528025
   scf:    3   -64500.464678   -64500.424679   -64500.459623  0.129627 -5.215025  0.051078
   scf:    4   -64500.423154   -64500.424261   -64500.460030  0.006702 -5.214596  0.036721
   scf:    5   -64500.423587   -64500.423986   -64500.460126  0.002774 -5.214484  0.016907
   scf:    6   -64500.424346   -64500.424176   -64500.460148  0.000796 -5.214555  0.005241
   scf:    7   -64500.423932   -64500.424057   -64500.460155  0.000540 -5.214643  0.004262
   scf:    8   -64500.423970   -64500.424014   -64500.460157  0.000272 -5.214703  0.003535
   scf:    9   -64500.424040   -64500.424027   -64500.460158  0.000211 -5.214758  0.001829
   scf:   10   -64500.423962   -64500.423995   -64500.460159  0.000101 -5.214805  0.001468
   scf:   11   -64500.423991   -64500.423993   -64500.460159  0.000069 -5.214845  0.000875

SCF Convergence by DM+H criterion
max |DM_out - DM_in|         :     0.0000686411
max |H_out - H_in|      (eV) :     0.0008754264
SCF cycle converged after 11 iterations

Using DM_out to compute the final energy and forces
No. of atoms with KB's overlaping orbs in proc 0. Max # of overlaps:      16     137

siesta: E_KS(eV) =           -64500.4240

siesta: Atomic forces (eV/Ang):
----------------------------------------
   Tot   -0.000472    0.000508   -0.001734
----------------------------------------
   Max    0.508357
   Res    0.186363    sqrt( Sum f_i^2 / 3N )
----------------------------------------
   Max    0.508357    constrained

Stress tensor Voigt[x,y,z,yz,xz,xy] (kbar):       -0.05       -0.05       -0.08        0.01        0.00        0.01
(Free)E + p*V (eV/cell)   -64498.0440
Target enthalpy (eV/cell)   -64500.4602

                     ====================================
                        Begin CG opt. move =     13
                     ====================================

outcell: Unit cell vectors (Ang):
       40.000000    0.000000    0.000000
        0.000000   40.000000    0.000000
        0.000000    0.000000   40.000000

outcell: Cell vector modules (Ang)   :   40.000000   40.000000   40.000000
outcell: Cell angles (23,13,12) (deg):     90.0000     90.0000     90.0000
outcell: Cell volume (Ang**3)        :  64000.0000
<dSpData1D:S at geom step 13
  <sparsity:sparsity for geom step 13
    nrows_g=304 nrows=304 sparsity=.7420 nnzs=68574, refcount: 7>
  <dData1D:(new from dSpData1D) n=68574, refcount: 1>
refcount: 1>
new_DM -- step:    14
Re-using DM from previous geometries...
Number of DMs in history: 1
 DM extrapolation coefficients: 
1   1.00000
New DM after history re-use:
<dSpData2D:SpM extrapolated using coords
  <sparsity:sparsity for geom step 13
    nrows_g=304 nrows=304 sparsity=.7420 nnzs=68574, refcount: 9>
  <dData2D:(temp array for extrapolation) n=68574 m=1, refcount: 1>
refcount: 1>
No. of atoms with KB's overlaping orbs in proc 0. Max # of overlaps:      16     140

InitMesh: MESH = 432 x 432 x 432 = 80621568
InitMesh: Mesh cutoff (required, used) =   300.000   322.366 Ry
New grid distribution [1]: sub = 2

        iscf     Eharris(eV)        E_KS(eV)     FreeEng(eV)     dDmax    Ef(eV) dHmax(eV)
   scf:    1   -64500.809943   -64500.433665   -64500.476496  0.072786 -5.208848  0.326165
   scf:    2   -64499.670444   -64500.210195   -64500.232697  0.152427 -5.283681  1.333003
   scf:    3   -64500.476045   -64500.451006   -64500.490168  0.127449 -5.227703  0.045824
   scf:    4   -64500.447042   -64500.449481   -64500.490180  0.008753 -5.227790  0.053416
   scf:    5   -64500.451348   -64500.450555   -64500.490482  0.004649 -5.227836  0.007840
   scf:    6   -64500.450777   -64500.450668   -64500.490496  0.000490 -5.227882  0.004742
   scf:    7   -64500.450648   -64500.450659   -64500.490500  0.000220 -5.227794  0.002152
   scf:    8   -64500.450748   -64500.450704   -64500.490502  0.000143 -5.227721  0.002224
   scf:    9   -64500.450689   -64500.450696   -64500.490503  0.000129 -5.227665  0.001296
   scf:   10   -64500.450733   -64500.450715   -64500.490503  0.000068 -5.227619  0.001294
   scf:   11   -64500.450704   -64500.450710   -64500.490503  0.000076 -5.227586  0.000731

SCF Convergence by DM+H criterion
max |DM_out - DM_in|         :     0.0000761818
max |H_out - H_in|      (eV) :     0.0007311283
SCF cycle converged after 11 iterations

Using DM_out to compute the final energy and forces
No. of atoms with KB's overlaping orbs in proc 0. Max # of overlaps:      16     140

siesta: E_KS(eV) =           -64500.4507

siesta: Atomic forces (eV/Ang):
----------------------------------------
   Tot   -0.000976    0.000804   -0.000519
----------------------------------------
   Max    0.162018
   Res    0.065634    sqrt( Sum f_i^2 / 3N )
----------------------------------------
   Max    0.162018    constrained

Stress tensor Voigt[x,y,z,yz,xz,xy] (kbar):       -0.01       -0.01       -0.04       -0.00        0.00        0.01
(Free)E + p*V (eV/cell)   -64499.7142
Target enthalpy (eV/cell)   -64500.4905

cgvc: Finished line minimization    5.  Mean atomic displacement =    0.0387

                     ====================================
                        Begin CG opt. move =     14
                     ====================================

outcell: Unit cell vectors (Ang):
       40.000000    0.000000    0.000000
        0.000000   40.000000    0.000000
        0.000000    0.000000   40.000000

outcell: Cell vector modules (Ang)   :   40.000000   40.000000   40.000000
outcell: Cell angles (23,13,12) (deg):     90.0000     90.0000     90.0000
outcell: Cell volume (Ang**3)        :  64000.0000
<dSpData1D:S at geom step 14
  <sparsity:sparsity for geom step 14
    nrows_g=304 nrows=304 sparsity=.7421 nnzs=68584, refcount: 7>
  <dData1D:(new from dSpData1D) n=68584, refcount: 1>
refcount: 1>
new_DM -- step:    15
Re-using DM from previous geometries...
Number of DMs in history: 1
 DM extrapolation coefficients: 
1   1.00000
New DM after history re-use:
<dSpData2D:SpM extrapolated using coords
  <sparsity:sparsity for geom step 14
    nrows_g=304 nrows=304 sparsity=.7421 nnzs=68584, refcount: 9>
  <dData2D:(temp array for extrapolation) n=68584 m=1, refcount: 1>
refcount: 1>
No. of atoms with KB's overlaping orbs in proc 0. Max # of overlaps:      16     140

InitMesh: MESH = 432 x 432 x 432 = 80621568
InitMesh: Mesh cutoff (required, used) =   300.000   322.366 Ry
New grid distribution [1]: sub = 2

        iscf     Eharris(eV)        E_KS(eV)     FreeEng(eV)     dDmax    Ef(eV) dHmax(eV)
   scf:    1   -64500.364090   -64500.475625   -64500.505856  0.050134 -5.229069  0.194950
   scf:    2   -64500.085376   -64500.344755   -64500.399922  0.081131 -5.212462  1.171714
   scf:    3   -64500.509234   -64500.475653   -64500.509583  0.071452 -5.225398  0.031693
   scf:    4   -64500.473608   -64500.474769   -64500.509676  0.004489 -5.225491  0.029569
   scf:    5   -64500.474782   -64500.474816   -64500.509747  0.002461 -5.225381  0.007336
   scf:    6   -64500.474830   -64500.474826   -64500.509758  0.000586 -5.225361  0.002915
   scf:    7   -64500.474600   -64500.474714   -64500.509761  0.000298 -5.225346  0.002892
   scf:    8   -64500.474709   -64500.474712   -64500.509762  0.000103 -5.225331  0.001531
   scf:    9   -64500.474647   -64500.474680   -64500.509762  0.000095 -5.225315  0.001041
   scf:   10   -64500.474677   -64500.474678   -64500.509763  0.000089 -5.225305  0.000801

SCF Convergence by DM+H criterion
max |DM_out - DM_in|         :     0.0000891608
max |H_out - H_in|      (eV) :     0.0008009337
SCF cycle converged after 10 iterations

Using DM_out to compute the final energy and forces
No. of atoms with KB's overlaping orbs in proc 0. Max # of overlaps:      16     140

siesta: E_KS(eV) =           -64500.4747

siesta: Atomic forces (eV/Ang):
----------------------------------------
   Tot   -0.001034   -0.001023   -0.000149
----------------------------------------
   Max    0.173495
   Res    0.060398    sqrt( Sum f_i^2 / 3N )
----------------------------------------
   Max    0.173495    constrained

Stress tensor Voigt[x,y,z,yz,xz,xy] (kbar):       -0.02       -0.00       -0.04       -0.00        0.00        0.01
(Free)E + p*V (eV/cell)   -64499.7462
Target enthalpy (eV/cell)   -64500.5098

                     ====================================
                        Begin CG opt. move =     15
                     ====================================

outcell: Unit cell vectors (Ang):
       40.000000    0.000000    0.000000
        0.000000   40.000000    0.000000
        0.000000    0.000000   40.000000

outcell: Cell vector modules (Ang)   :   40.000000   40.000000   40.000000
outcell: Cell angles (23,13,12) (deg):     90.0000     90.0000     90.0000
outcell: Cell volume (Ang**3)        :  64000.0000
<dSpData1D:S at geom step 15
  <sparsity:sparsity for geom step 15
    nrows_g=304 nrows=304 sparsity=.7399 nnzs=68380, refcount: 7>
  <dData1D:(new from dSpData1D) n=68380, refcount: 1>
refcount: 1>
new_DM -- step:    16
Re-using DM from previous geometries...
Number of DMs in history: 1
 DM extrapolation coefficients: 
1   1.00000
New DM after history re-use:
<dSpData2D:SpM extrapolated using coords
  <sparsity:sparsity for geom step 15
    nrows_g=304 nrows=304 sparsity=.7399 nnzs=68380, refcount: 9>
  <dData2D:(temp array for extrapolation) n=68380 m=1, refcount: 1>
refcount: 1>
No. of atoms with KB's overlaping orbs in proc 0. Max # of overlaps:      16     137

InitMesh: MESH = 432 x 432 x 432 = 80621568
InitMesh: Mesh cutoff (required, used) =   300.000   322.366 Ry
New grid distribution [1]: sub = 2

        iscf     Eharris(eV)        E_KS(eV)     FreeEng(eV)     dDmax    Ef(eV) dHmax(eV)
   scf:    1   -64500.247232   -64500.496494   -64500.517790  0.079596 -5.227302  0.251770
   scf:    2   -64499.982197   -64500.326548   -64500.377884  0.085319 -5.199128  1.373604
   scf:    3   -64500.540947   -64500.498647   -64500.524124  0.073947 -5.221126  0.051558
   scf:    4   -64500.496034   -64500.497603   -64500.524368  0.005544 -5.221211  0.038071
   scf:    5   -64500.497537   -64500.497637   -64500.524487  0.002874 -5.221002  0.009685
   scf:    6   -64500.497527   -64500.497587   -64500.524508  0.000670 -5.220981  0.003653
   scf:    7   -64500.497339   -64500.497464   -64500.524515  0.000330 -5.220951  0.002764
   scf:    8   -64500.497406   -64500.497435   -64500.524517  0.000123 -5.220923  0.001659
   scf:    9   -64500.497333   -64500.497384   -64500.524519  0.000100 -5.220891  0.001090
   scf:   10   -64500.497361   -64500.497373   -64500.524519  0.000060 -5.220866  0.000766

SCF Convergence by DM+H criterion
max |DM_out - DM_in|         :     0.0000599066
max |H_out - H_in|      (eV) :     0.0007662403
SCF cycle converged after 10 iterations

Using DM_out to compute the final energy and forces
No. of atoms with KB's overlaping orbs in proc 0. Max # of overlaps:      16     137

siesta: E_KS(eV) =           -64500.4974

siesta: Atomic forces (eV/Ang):
----------------------------------------
   Tot   -0.001940   -0.001124    0.000656
----------------------------------------
   Max    0.254601
   Res    0.103120    sqrt( Sum f_i^2 / 3N )
----------------------------------------
   Max    0.254601    constrained

Stress tensor Voigt[x,y,z,yz,xz,xy] (kbar):       -0.03        0.01       -0.04       -0.01        0.01        0.01
(Free)E + p*V (eV/cell)   -64499.7229
Target enthalpy (eV/cell)   -64500.5245

outcoor: Final (unrelaxed) atomic coordinates (Ang):        
    4.13208533    3.61948359    3.93294702   1       1  Au
    5.80504189    5.84618431    3.92488011   1       2  Au
    5.85915042    4.03750462    6.05966761   1       3  Au
    3.43802554    5.53263419    5.76388365   1       4  Au
    4.32093479    8.04956031    4.98797192   1       5  Au
    6.37908228   10.12969625    5.11694623   1       6  Au
    6.88098480    7.44614158    5.80137981   1       7  Au
    4.47917751   10.03617498    6.98276194   1       8  Au
    4.37673275    4.66068161    8.36528117   1       9  Au
    6.85551171    5.75200546    7.89341435   1      10  Au
    6.38352544    4.90973171   10.54104250   1      11  Au
    4.38880727    6.68600258   10.34524945   1      12  Au
    3.70791925    7.39389742    7.69288762   1      13  Au
    7.06221733    9.31719054    7.83537308   1      14  Au
    7.14738222    7.57431960    9.88676447   1      15  Au
    4.66894813    9.26958561    9.61083583   1      16  Au

coxmol: Writing XMOL coordinates into file SurRel.xyz                                                                                                                                                                                                                          

siesta: Program's energy decomposition (eV):
siesta: Ebs     =    -10813.277334
siesta: Eions   =     81244.997452
siesta: Ena     =      8180.560075
siesta: Ekin    =     18516.451984
siesta: Enl     =      1094.841406
siesta: Eso     =         0.000000
siesta: Edftu   =         0.000000
siesta: DEna    =       267.591705
siesta: DUscf   =         6.272194
siesta: DUext   =         0.000000
siesta: Ex      =    -10674.237135
siesta: Ec      =      -646.980151
siesta: Exc     =    -11321.217285
siesta: EbV     =         0.000000
siesta: eta*DQ  =         0.000000
siesta: Emadel  =         0.000000
siesta: Emeta   =         0.000000
siesta: Emolmec =         0.000000
siesta: Ekinion =         0.000000
siesta: Eharris =    -64500.497361
siesta: Etot    =    -64500.497373
siesta: FreeEng =    -64500.524519

siesta: Final energy (eV):
siesta:  Band Struct. =  -10813.277334
siesta:       Kinetic =   18516.451984
siesta:       Hartree =  160031.797403
siesta:         Edftu =       0.000000
siesta:       Eso     =       0.000000
siesta:    Ext. field =       0.000000
siesta:         Exch. =  -10674.237135
siesta:         Corr. =    -646.980151
siesta:     Bulk bias =       0.000000
siesta:   Exch.-corr. =  -11321.217285
siesta:  Ion-electron = -341283.718453
siesta:       Ion-ion =  109556.188979
siesta:       Ekinion =       0.000000
siesta: D3 dispersion =       0.000000
siesta:         Total =  -64500.497373
siesta:         Fermi =      -5.220866

siesta: Atomic forces (eV/Ang):
siesta:      1    0.022858    0.011642    0.012700
siesta:      2   -0.057878   -0.010352   -0.082647
siesta:      3    0.036272    0.066346   -0.058016
siesta:      4   -0.026503    0.057288   -0.015636
siesta:      5   -0.167284   -0.041743   -0.169310
siesta:      6    0.088877    0.001715   -0.137606
siesta:      7    0.254601   -0.221510   -0.026307
siesta:      8   -0.137205    0.063437    0.200297
siesta:      9   -0.124117   -0.175530    0.004877
siesta:     10    0.185327    0.169897   -0.066995
siesta:     11    0.059314   -0.046715    0.042431
siesta:     12   -0.110801    0.128454    0.020875
siesta:     13    0.035653    0.104438    0.126801
siesta:     14   -0.061033   -0.133314    0.066656
siesta:     15   -0.004882    0.072710    0.101829
siesta:     16    0.004862   -0.047885   -0.019293
siesta: ----------------------------------------
siesta:    Tot   -0.001940   -0.001124    0.000656

siesta: Stress tensor (static) (eV/Ang**3):
siesta:    -0.000019    0.000007    0.000003
siesta:     0.000007    0.000005   -0.000007
siesta:     0.000003   -0.000007   -0.000023

siesta: Cell volume =      64000.000000 Ang**3

siesta: Pressure (static):
siesta:                Solid            Molecule  Units
siesta:           0.00000014          0.00000000  Ry/Bohr**3
siesta:           0.00001252          0.00000044  eV/Ang**3
siesta:           0.02006694          0.00071065  kBar
(Free)E+ p_basis*V_orbitals  =      -64481.582879
(Free)Eharris+ p_basis*V_orbitals  =      -64481.582868

siesta: Electric dipole (a.u.)  =    0.066254    0.054882    0.092024
siesta: Electric dipole (Debye) =    0.168401    0.139496    0.233901

cite: Please indicate the Siesta version in published work: 5.2.2
cite: This calculation has made use of features in the following articles
cite: which we encourage you to cite in published work.
cite: (Please see "SurRel.bib" for a BibTeX file.)
        Primary SIESTA paper
          DOI: www.doi.org/10.1088/0953-8984/14/11/302
        PSML pseudopotential format
          DOI: www.doi.org/10.1016/j.cpc.2018.02.011


timer: Elapsed wall time (sec) =    5385.808
timer: CPU execution times (sec):

Routine            Calls   Time/call    Tot.time        %
siesta                 1    6559.103    6559.103   100.00
Setup                  1       0.884       0.884     0.01
bands                  1       0.000       0.000     0.00
KSV_init               1       0.000       0.000     0.00
IterGeom              16     409.885    6558.166    99.99
geom_init             16      40.838     653.408     9.96
state_init            16       0.045       0.714     0.01
hsparse               16       0.003       0.042     0.00
overlap               16       0.039       0.627     0.01
Setup_H0              16      19.933     318.921     4.86
naefs                 32       0.000       0.004     0.00
dnaefs                32       0.000       0.003     0.00
MolMec                32       0.000       0.000     0.00
kinefsm               32       0.031       0.982     0.01
nlefsm                32       0.100       3.187     0.05
DHSCF_Init            16      19.778     316.455     4.82
DHSCF1                16       0.325       5.197     0.08
InitMesh              16       0.325       5.195     0.08
INITMESH              16       0.000       0.000     0.00
DHSCF2                16      19.454     311.258     4.75
REMESH                16       0.329       5.260     0.08
REORD                696       0.294     204.846     3.12
PHION                 16       4.334      69.350     1.06
COMM_BSC             960       0.200     192.464     2.93
POISON               244      12.471    3042.984    46.39
fft                  488       5.219    2547.095    38.83
setup_H              212      20.973    4446.318    67.79
DHSCF                228      21.415    4882.533    74.44
DHSCF3               228      20.789    4739.944    72.27
rhoofd               228       1.162     265.022     4.04
XC                   228       2.822     643.448     9.81
GXC-CellXC           228       1.943     442.969     6.75
gridxc@cellXC        228       1.943     442.963     6.75
vmat                 228       0.665     151.675     2.31
IterSCF              196      27.699    5428.975    82.77
compute_dm           196       6.713    1315.817    20.06
diagon               196       6.711    1315.408    20.05
r-eigvec             196       6.202    1215.663    18.53
r-buildHS            196       0.000       0.064     0.00
rdiag                196       6.202    1215.587    18.53
rdiag1               196       0.001       0.205     0.00
rdiag2               196       1.836     359.925     5.49
rdiag3               196       4.341     850.886    12.97
rdiag4               196       0.023       4.523     0.07
r-buildD             196       0.506      99.201     1.51
MIXER                180       0.001       0.119     0.00
PostSCF               16      29.735     475.758     7.25
FINAL_HF              16      29.735     475.757     7.25
DHSCF4                16       8.912     142.586     2.17
dfscf                 16       4.185      66.965     1.02
overfsm               16       0.023       0.362     0.01
writeHSX              16       0.002       0.026     0.00
state_analysis        16       0.000       0.004     0.00
siesta_move           16       0.001       0.013     0.00
Analysis               1       0.002       0.002     0.00
optical                1       0.000       0.000     0.00
  

>> End of run:  30-JUN-2025  19:28:12
Job completed
Job completed
